 Gaussian 16, Revision B.01,
 Gaussian 16:  ES64L-G16RevB.01 20-Dec-2017

 --------------------------------------
 #P pm6 opt=loose freq int=(grid=99590)
 --------------------------------------

 ------------
 offspring-06
 ------------
 Symbolic Z-matrix:
 Charge =  0 Multiplicity = 1

 SCF Done:  E(RPM6) = -0.795149619635     A.U. after   14 cycles
 SCF Done:  E(RPM6) = -0.795006185912     A.U. after   11 cycles
 SCF Done:  E(RPM6) = -0.795148006405     A.U. after   10 cycles
 SCF Done:  E(RPM6) = -0.795147330307     A.U. after    9 cycles
 SCF Done:  E(RPM6) = -0.795154987096     A.U. after    9 cycles
 SCF Done:  E(RPM6) = -0.795155104457     A.U. after    9 cycles
 SCF Done:  E(RPM6) = -0.795154642107     A.U. after    9 cycles
 SCF Done:  E(RPM6) = -0.795154530439     A.U. after    9 cycles
 SCF Done:  E(RPM6) = -0.795157329669     A.U. after    9 cycles
 Optimization completed.
    -- Stationary point found.
 Normal termination of Gaussian 16 at Tue Jun 22 14:21:49 2021.

 -------------------------------------------------------------
 #P Geom=AllCheck Guess=TCheck SCRF=Check GenChk RPM6/ZDO Freq
 -------------------------------------------------------------

 Structure from the checkpoint file:  "/scratch-data/gaussian/Gau-8000.chk"
 ------------
 offspring-06
 ------------
 Charge =  0 Multiplicity = 1

                         Standard orientation:
 ---------------------------------------------------------------------
 Center     Atomic      Atomic             Coordinates (Angstroms)
 Number     Number       Type             X           Y           Z
 ---------------------------------------------------------------------
      1          8           0       -3.131311    0.527243    1.937797
      2          6           0       -3.733858    0.459898    0.638609
      3          6           0       -3.567465   -0.969208    0.072525
      4          8           0       -3.974981   -1.810324    1.158480
      5          6           0       -2.084637   -1.233817   -0.266706
      6          6           0       -1.629366   -0.249591   -1.361031
      7          8           0       -2.439631    0.918508   -1.429606
      8          6           0       -3.005794    1.503826   -0.236874
      9          6           0       -1.905167    2.267565    0.512612
     10          8           0       -1.054735    2.926488   -0.443818
     11          8           0        3.994536    1.652576   -0.193384
     12          6           0        3.023595    0.686902    0.246505
     13          6           0        1.633581    1.110068   -0.278351
     14          6           0        0.598678   -0.036244   -0.204742
     15          6           0        1.174962   -1.451982   -0.477912
     16          8           0        2.522348   -1.661261   -0.047379
     17          6           0        3.489420   -0.637334   -0.381333
     18          6           0        4.795819   -1.180371    0.236803
     19          8           0        5.410874   -0.244924    1.115231
     20          8           0        0.465964   -2.388821    0.330324
     21          8           0       -0.279636    0.232933   -1.318263
     22          8           0        1.264701    2.144880    0.625975
     23          8           0       -2.058009   -2.552428   -0.816244
     24          1           0       -4.813947    0.708722    0.756391
     25          1           0       -4.224794   -1.167494   -0.803119
     26          1           0       -3.748911   -2.750554    0.946202
     27          1           0       -1.455661   -1.186550    0.655446
     28          1           0       -1.712585   -0.652453   -2.402258
     29          1           0       -3.733721    2.210224   -0.710779
     30          1           0       -2.309133    3.084935    1.137352
     31          1           0       -1.277844    1.603627    1.141229
     32          1           0       -0.941997    2.324565   -1.247006
     33          1           0        3.032424    0.648357    1.363059
     34          1           0        1.690416    1.510732   -1.318374
     35          1           0        0.045593   -0.002075    0.762754
     36          1           0        1.048460   -1.777912   -1.531883
     37          1           0        3.552898   -0.559632   -1.488507
     38          1           0        4.586791   -2.053569    0.892113
     39          1           0        5.514974   -1.469306   -0.550722
     40          1           0        5.551015    0.625063    0.652206
     41          1           0        0.524245    2.727678    0.231699
     42          1           0        3.756500    2.538529    0.180133
     43          1           0       -1.193627   -2.994321   -0.584973
     44          1           0        1.030739   -2.686446    1.090307
     45          1           0       -3.421400   -0.259348    2.475192
 ---------------------------------------------------------------------

 SCF Done:  E(RPM6) = -0.795157329680     A.U. after    2 cycles

 The electronic state is 1-A.
 Alpha  occ. eigenvalues --   -1.17726  -1.16434  -1.14670  -1.14117  -1.12771
 Alpha  occ. eigenvalues --   -1.11662  -1.10739  -1.10338  -1.09337  -1.09139
 Alpha  occ. eigenvalues --   -1.07250  -1.02934  -1.00707  -0.99566  -0.98625
 Alpha  occ. eigenvalues --   -0.92587  -0.91698  -0.88573  -0.85342  -0.83605
 Alpha  occ. eigenvalues --   -0.82397  -0.77275  -0.75524  -0.74073  -0.72182
 Alpha  occ. eigenvalues --   -0.70984  -0.70025  -0.68717  -0.68212  -0.66598
 Alpha  occ. eigenvalues --   -0.64978  -0.64833  -0.64302  -0.63171  -0.62301
 Alpha  occ. eigenvalues --   -0.61609  -0.60859  -0.60254  -0.59582  -0.58678
 Alpha  occ. eigenvalues --   -0.56636  -0.56296  -0.55501  -0.55130  -0.54116
 Alpha  occ. eigenvalues --   -0.53108  -0.51892  -0.51380  -0.50268  -0.50159
 Alpha  occ. eigenvalues --   -0.49529  -0.49034  -0.48737  -0.48295  -0.47220
 Alpha  occ. eigenvalues --   -0.47015  -0.45873  -0.45269  -0.43385  -0.42799
 Alpha  occ. eigenvalues --   -0.42476  -0.41617  -0.41483  -0.40755  -0.40451
 Alpha  occ. eigenvalues --   -0.39558  -0.39347  -0.38989
 Alpha virt. eigenvalues --    0.00916   0.02273   0.02971   0.04282   0.05154
 Alpha virt. eigenvalues --    0.05494   0.06117   0.07055   0.07245   0.07268
 Alpha virt. eigenvalues --    0.08057   0.08312   0.08589   0.08876   0.09506

 Mulliken charges:
               1
     1  O   -0.560033
     2  C    0.072459
     3  C    0.083850
     4  O   -0.559491
     5  C   -0.012884
     6  C    0.318442
     7  O   -0.469456
     8  C    0.066666
     9  C   -0.044124
    10  O   -0.558175
    11  O   -0.561474
    12  C    0.075713
    13  C    0.087490
    14  C   -0.021338
    15  C    0.345609
    16  O   -0.512643
    17  C    0.077446
    18  C   -0.018273
    19  O   -0.537812
    20  O   -0.595923
    21  O   -0.509198
    22  O   -0.593870
    23  O   -0.550468
    24  H    0.146573
    25  H    0.153738
    26  H    0.340078
    27  H    0.172869
    28  H    0.175995
    29  H    0.167303
    30  H    0.163027
    31  H    0.155401
    32  H    0.345118
    33  H    0.171803
    34  H    0.153220
    35  H    0.170484
    36  H    0.148117
    37  H    0.140584
    38  H    0.170471
    39  H    0.129945
    40  H    0.330728
    41  H    0.359163
    42  H    0.338372
    43  H    0.343573
    44  H    0.356105
    45  H    0.344821
 Sum of Mulliken charges =  -0.00000

 Dipole moment (field-independent basis, Debye):
    X=             -1.7403    Y=             -1.8475    Z=             -1.2199  Tot=              2.8160
 N-N= 1.399502105262D+03 E-N=-2.401011759917D+03  KE=-3.045689947754D+02
  Exact polarizability: 154.354   2.114 133.045   1.764  -0.195 103.698
 Approx polarizability:  99.471   2.333  98.908   1.687  -1.265  84.265
 Leave Link  601 at Tue Jun 22 14:21:50 2021, MaxMem=  2147483648 cpu:               0.2 elap:               0.0
 (Enter /home/matma/Programs/gaussian/G16_x86_SSE4/tar/g16/l701.exe)
 ... and contract with generalized density number  0.
 Compute integral second derivatives.
 Leave Link  701 at Tue Jun 22 14:21:50 2021, MaxMem=  2147483648 cpu:               0.6 elap:               0.1
 (Enter /home/matma/Programs/gaussian/G16_x86_SSE4/tar/g16/l702.exe)
 L702 exits ... SP integral derivatives will be done elsewhere.

                      1                      2                      3
                      A                      A                      A
 Frequencies --     23.1192                27.3995                44.3086
 Red. masses --      6.2855                 4.8847                 5.6363
 Frc consts  --      0.0020                 0.0022                 0.0065
 IR Inten    --      0.2241                 0.6436                 0.2372

                      4                      5                      6
                      A                      A                      A
 Frequencies --     54.4401                75.5831                86.8087
 Red. masses --      6.0336                 5.9282                 5.7487
 Frc consts  --      0.0105                 0.0200                 0.0255
 IR Inten    --      4.3660                 4.4645                 1.6131

                      7                      8                      9
                      A                      A                      A
 Frequencies --     92.2064               103.8727               106.2480
 Red. masses --      4.6850                 4.7387                 4.5927
 Frc consts  --      0.0235                 0.0301                 0.0305
 IR Inten    --      0.4812                 4.2448                 3.1756

                     10                     11                     12
                      A                      A                      A
 Frequencies --    133.2282               150.7374               164.4809
 Red. masses --      5.8962                 3.8165                 6.4256
 Frc consts  --      0.0617                 0.0511                 0.1024
 IR Inten    --      9.6105                 5.2170                 5.5352

                     13                     14                     15
                      A                      A                      A
 Frequencies --    185.5365               199.4841               212.0298
 Red. masses --      6.3394                 5.8431                 5.4754
 Frc consts  --      0.1286                 0.1370                 0.1450
 IR Inten    --      2.9456                20.8340                 0.2906

                     16                     17                     18
                      A                      A                      A
 Frequencies --    228.2103               242.6656               244.4784
 Red. masses --      5.8871                 1.6991                 3.1225
 Frc consts  --      0.1806                 0.0590                 0.1100
 IR Inten    --      5.0879                80.3071                21.6648

                     19                     20                     21
                      A                      A                      A
 Frequencies --    267.2455               283.8636               287.8239
 Red. masses --      5.4183                 5.4177                 2.7228
 Frc consts  --      0.2280                 0.2572                 0.1329
 IR Inten    --      8.3159                 4.1922                75.6326

                     22                     23                     24
                      A                      A                      A
 Frequencies --    302.9359               330.1991               335.2956
 Red. masses --      6.0184                 3.0562                 1.5440
 Frc consts  --      0.3254                 0.1963                 0.1023
 IR Inten    --     15.0051                34.9437               104.4080

                     25                     26                     27
                      A                      A                      A
 Frequencies --    359.4129               371.5377               373.3481
 Red. masses --      6.5733                 1.3939                 1.9454
 Frc consts  --      0.5003                 0.1134                 0.1598
 IR Inten    --      5.0946               137.2491                46.2991

                     28                     29                     30
                      A                      A                      A
 Frequencies --    380.4051               391.1339               396.0069
 Red. masses --      3.2893                 2.0256                 3.1394
 Frc consts  --      0.2804                 0.1826                 0.2901
 IR Inten    --     14.3606                82.1455                40.0167

                     31                     32                     33
                      A                      A                      A
 Frequencies --    401.8732               422.0103               435.1402
 Red. masses --      3.4866                 1.7961                 2.6085
 Frc consts  --      0.3318                 0.1885                 0.2910
 IR Inten    --     27.7452                42.2860                17.2062

                     34                     35                     36
                      A                      A                      A
 Frequencies --    461.6457               468.4584               491.1523
 Red. masses --      3.7065                 2.8598                 3.3194
 Frc consts  --      0.4654                 0.3698                 0.4718
 IR Inten    --      1.0482                11.7679                59.8782

                     37                     38                     39
                      A                      A                      A
 Frequencies --    506.0349               523.9975               529.6464
 Red. masses --      2.1474                 1.4370                 2.6815
 Frc consts  --      0.3240                 0.2325                 0.4432
 IR Inten    --    121.9100                89.6994                10.5507

                     40                     41                     42
                      A                      A                      A
 Frequencies --    541.4113               572.7872               583.0505
 Red. masses --      1.7516                 3.4621                 3.7308
 Frc consts  --      0.3025                 0.6692                 0.7473
 IR Inten    --     47.9362                26.4022                25.2604

                     43                     44                     45
                      A                      A                      A
 Frequencies --    611.2708               616.6005               624.8871
 Red. masses --      4.7200                 2.7071                 1.3041
 Frc consts  --      1.0391                 0.6064                 0.3000
 IR Inten    --     18.5145                 2.0071               150.1949

                     46                     47                     48
                      A                      A                      A
 Frequencies --    657.9624               736.9511               837.0681
 Red. masses --      5.0893                 3.8711                 2.7505
 Frc consts  --      1.2981                 1.2387                 1.1355
 IR Inten    --      7.5484                13.1283                34.9330

                     49                     50                     51
                      A                      A                      A
 Frequencies --    874.6348               936.3494               964.0264
 Red. masses --      1.8147                 2.2212                 3.9526
 Frc consts  --      0.8179                 1.1474                 2.1643
 IR Inten    --     14.2916                17.4702                14.6671

                     52                     53                     54
                      A                      A                      A
 Frequencies --    982.9425               987.8077              1005.4538
 Red. masses --      1.9464                 2.7870                 3.2980
 Frc consts  --      1.1080                 1.6022                 1.9644
 IR Inten    --     19.3009                19.8472                 4.8149

                     55                     56                     57
                      A                      A                      A
 Frequencies --   1008.1753              1034.9167              1048.0940
 Red. masses --      3.4996                 2.9953                 2.4589
 Frc consts  --      2.0958                 1.8902                 1.5914
 IR Inten    --    189.7286               113.8481               114.5910

                     58                     59                     60
                      A                      A                      A
 Frequencies --   1060.7821              1065.5026              1081.7165
 Red. masses --      2.6798                 2.1645                 1.8410
 Frc consts  --      1.7766                 1.4478                 1.2692
 IR Inten    --    147.5729               215.6604                20.6798

                     61                     62                     63
                      A                      A                      A
 Frequencies --   1085.6486              1091.2483              1097.4566
 Red. masses --      1.9956                 1.8277                 2.5629
 Frc consts  --      1.3858                 1.2823                 1.8187
 IR Inten    --     32.4796                37.7724                47.9878

                     64                     65                     66
                      A                      A                      A
 Frequencies --   1100.8926              1105.6563              1110.9587
 Red. masses --      2.5358                 1.8359                 2.1757
 Frc consts  --      1.8108                 1.3223                 1.5821
 IR Inten    --     86.9267               116.6841                 6.3228

                     67                     68                     69
                      A                      A                      A
 Frequencies --   1115.7915              1120.9726              1135.1047
 Red. masses --      2.3117                 2.5972                 2.1457
 Frc consts  --      1.6957                 1.9228                 1.6289
 IR Inten    --     23.7137                37.8592                47.7601

                     70                     71                     72
                      A                      A                      A
 Frequencies --   1137.6226              1141.5665              1145.1463
 Red. masses --      2.2686                 1.9722                 1.6023
 Frc consts  --      1.7298                 1.5142                 1.2380
 IR Inten    --     51.7268                22.7606                18.3396

                     73                     74                     75
                      A                      A                      A
 Frequencies --   1149.4558              1158.5096              1163.9210
 Red. masses --      1.7566                 1.4372                 1.7571
 Frc consts  --      1.3674                 1.1365                 1.4024
 IR Inten    --     24.4102                36.4761                22.1018

                     76                     77                     78
                      A                      A                      A
 Frequencies --   1167.5869              1175.2169              1179.1318
 Red. masses --      1.4733                 1.3779                 1.6859
 Frc consts  --      1.1834                 1.1212                 1.3810
 IR Inten    --      2.4741                17.2918                48.7561

                     79                     80                     81
                      A                      A                      A
 Frequencies --   1183.3563              1187.7872              1191.9189
 Red. masses --      1.5128                 1.6018                 1.5783
 Frc consts  --      1.2482                 1.3315                 1.3211
 IR Inten    --      7.9751                47.9504                 3.1763

                     82                     83                     84
                      A                      A                      A
 Frequencies --   1196.5501              1196.6761              1199.9107
 Red. masses --      1.2743                 1.2747                 1.6205
 Frc consts  --      1.0750                 1.0755                 1.3746
 IR Inten    --      5.5087                11.8576                20.5573

                     85                     86                     87
                      A                      A                      A
 Frequencies --   1206.0047              1207.8925              1215.7098
 Red. masses --      1.3529                 1.3550                 1.8520
 Frc consts  --      1.1593                 1.1647                 1.6127
 IR Inten    --     60.6460                16.1442                70.5750

                     88                     89                     90
                      A                      A                      A
 Frequencies --   1222.0727              1225.7442              1235.5039
 Red. masses --      1.4686                 1.5379                 1.7689
 Frc consts  --      1.2922                 1.3614                 1.5909
 IR Inten    --      7.9714                18.0256                 2.6002

                     91                     92                     93
                      A                      A                      A
 Frequencies --   1239.0377              1244.9067              1246.3259
 Red. masses --      1.6941                 1.5623                 1.5199
 Frc consts  --      1.5324                 1.4266                 1.3910
 IR Inten    --     12.3007                26.9932                25.0265

                     94                     95                     96
                      A                      A                      A
 Frequencies --   1249.0137              1256.3884              1262.6933
 Red. masses --      1.5504                 1.4238                 1.2454
 Frc consts  --      1.4250                 1.3242                 1.1699
 IR Inten    --     61.3334                 6.1396                11.7686

                     97                     98                     99
                      A                      A                      A
 Frequencies --   1263.1641              1276.3874              1280.1390
 Red. masses --      1.2917                 1.7017                 1.3627
 Frc consts  --      1.2143                 1.6334                 1.3158
 IR Inten    --     16.8307                 8.2176                 0.3703

                    100                    101                    102
                      A                      A                      A
 Frequencies --   1320.0403              1333.1848              1342.6000
 Red. masses --      1.6819                 1.6339                 1.7181
 Frc consts  --      1.7267                 1.7110                 1.8247
 IR Inten    --     17.8958                52.5288                31.9842

                    103                    104                    105
                      A                      A                      A
 Frequencies --   1356.8983              1358.1801              1368.7617
 Red. masses --      1.8291                 1.5790                 1.5841
 Frc consts  --      1.9842                 1.7161                 1.7486
 IR Inten    --     36.0817                38.1986                27.8456

                    106                    107                    108
                      A                      A                      A
 Frequencies --   1369.5256              1399.7935              2299.7919
 Red. masses --      1.2152                 1.2141                 1.0605
 Frc consts  --      1.3429                 1.4017                 3.3047
 IR Inten    --     13.8260                43.3509               790.3258

                    109                    110                    111
                      A                      A                      A
 Frequencies --   2486.3681              2491.0323              2506.6155
 Red. masses --      1.0543                 1.0558                 1.0541
 Frc consts  --      3.8401                 3.8600                 3.9022
 IR Inten    --    256.9192               354.2244               248.1722

                    112                    113                    114
                      A                      A                      A
 Frequencies --   2520.2716              2523.5044              2536.9077
 Red. masses --      1.0546                 1.0528                 1.0545
 Frc consts  --      3.9468                 3.9499                 3.9986
 IR Inten    --     92.9142               400.0055               390.0780

                    115                    116                    117
                      A                      A                      A
 Frequencies --   2542.5698              2635.4678              2640.4703
 Red. masses --      1.0546                 1.0631                 1.0779
 Frc consts  --      4.0170                 4.3507                 4.4280
 IR Inten    --    251.2122                26.8192                12.8287

                    118                    119                    120
                      A                      A                      A
 Frequencies --   2651.4590              2652.7220              2658.3521
 Red. masses --      1.0621                 1.0821                 1.0601
 Frc consts  --      4.3994                 4.4863                 4.4141
 IR Inten    --     83.5977                47.0473                39.0034

                    121                    122                    123
                      A                      A                      A
 Frequencies --   2661.5485              2662.9979              2667.1590
 Red. masses --      1.0662                 1.0671                 1.0661
 Frc consts  --      4.4501                 4.4587                 4.4682
 IR Inten    --     60.1107                60.6575                26.5059

                    124                    125                    126
                      A                      A                      A
 Frequencies --   2670.9999              2677.2863              2682.9269
 Red. masses --      1.0702                 1.0680                 1.0680
 Frc consts  --      4.4986                 4.5103                 4.5294
 IR Inten    --     39.4634                65.0682               187.5988

                    127                    128                    129
                      A                      A                      A
 Frequencies --   2684.0455              2715.2245              2721.0167
 Red. masses --      1.0733                 1.0447                 1.0489
 Frc consts  --      4.5556                 4.5381                 4.5756
 IR Inten    --    152.7809                45.7384                48.7261

 - Thermochemistry -
 -------------------
 Temperature   298.150 Kelvin.  Pressure   1.00000 Atm.
 Atom     1 has atomic number  8 and mass  15.99491

 Molecular mass:   342.11621 amu.
 Principal axes and moments of inertia in atomic units:
                           1         2         3
     Eigenvalues --  3882.21607********************
           X            0.99999  -0.00281  -0.00273
           Y            0.00282   0.99999   0.00282
           Z            0.00272  -0.00282   0.99999
 This molecule is an asymmetric top.
 Rotational symmetry number  1.
 Warning -- assumption of classical behavior for rotation
           may cause significant error
 Rotational temperatures (Kelvin)      0.02231     0.00792     0.00666
 Rotational constants (GHZ):           0.46487     0.16507     0.13887
 Zero-point vibrational energy     854332.2 (Joules/Mol)
                                  204.19029 (Kcal/Mol)
 Warning -- explicit consideration of  44 degrees of freedom as
           vibrations may cause significant error
 Vibrational temperatures:     33.26    39.42    63.75    78.33   108.75
          (Kelvin)            124.90   132.66   149.45   152.87   191.69
                              216.88   236.65   266.95   287.01   305.06
                              328.34   349.14   351.75   384.51   408.42
                              414.11   435.86   475.08   482.42   517.12
                              534.56   537.16   547.32   562.75   569.77
                              578.21   607.18   626.07   664.21   674.01
                              706.66   728.07   753.92   762.04   778.97
                              824.11   838.88   879.48   887.15   899.07
                              946.66  1060.31  1204.35  1258.40  1347.20
                             1387.02  1414.23  1421.23  1446.62  1450.54
                             1489.01  1507.97  1526.23  1533.02  1556.35
                             1562.01  1570.06  1579.00  1583.94  1590.79
                             1598.42  1605.38  1612.83  1633.16  1636.79
                             1642.46  1647.61  1653.81  1666.84  1674.62
                             1679.90  1690.87  1696.51  1702.59  1708.96
                             1714.91  1721.57  1721.75  1726.40  1735.17
                             1737.89  1749.14  1758.29  1763.57  1777.61
                             1782.70  1791.14  1793.19  1797.05  1807.66
                             1816.73  1817.41  1836.44  1841.83  1899.24
                             1918.16  1931.70  1952.27  1954.12  1969.34
                             1970.44  2013.99  3308.89  3577.33  3584.04
                             3606.46  3626.11  3630.76  3650.04  3658.19
                             3791.85  3799.05  3814.86  3816.68  3824.78
                             3829.37  3831.46  3837.45  3842.97  3852.02
                             3860.13  3861.74  3906.60  3914.94

 Zero-point correction=                           0.325398 (Hartree/Particle)
 Thermal correction to Energy=                    0.349811
 Thermal correction to Enthalpy=                  0.350756
 Thermal correction to Gibbs Free Energy=         0.271750
 Sum of electronic and zero-point Energies=             -0.469759
 Sum of electronic and thermal Energies=                -0.445346
 Sum of electronic and thermal Enthalpies=              -0.444402
 Sum of electronic and thermal Free Energies=           -0.523407

                     E (Thermal)             CV                S
                      KCal/Mol        Cal/Mol-Kelvin    Cal/Mol-Kelvin
 Total                  219.510             93.796            166.281
 Electronic               0.000              0.000              0.000
 Translational            0.889              2.981             43.384
 Rotational               0.889              2.981             34.666
 Vibrational            217.733             87.834             88.230
 Vibration     1          0.593              1.985              6.346
 Vibration     2          0.593              1.984              6.009
 Vibration     3          0.595              1.980              5.056
 Vibration     4          0.596              1.976              4.649
 Vibration     5          0.599              1.965              4.002
 Vibration     6          0.601              1.958              3.731
 Vibration     7          0.602              1.955              3.613
 Vibration     8          0.605              1.946              3.380
 Vibration     9          0.605              1.944              3.336
 Vibration    10          0.613              1.920              2.899
 Vibration    11          0.618              1.902              2.663
 Vibration    12          0.623              1.886              2.498
 Vibration    13          0.632              1.860              2.272
 Vibration    14          0.638              1.841              2.138
 Vibration    15          0.643              1.823              2.026
 Vibration    16          0.651              1.798              1.893
 Vibration    17          0.659              1.775              1.783
 Vibration    18          0.660              1.772              1.770
 Vibration    19          0.672              1.733              1.614
 Vibration    20          0.682              1.704              1.510
 Vibration    21          0.685              1.696              1.487
 Vibration    22          0.694              1.668              1.401
 Vibration    23          0.713              1.615              1.259
 Vibration    24          0.716              1.605              1.234
 Vibration    25          0.734              1.556              1.125
 Vibration    26          0.743              1.531              1.073
 Vibration    27          0.745              1.527              1.066
 Vibration    28          0.750              1.512              1.038
 Vibration    29          0.759              1.489              0.996
 Vibration    30          0.763              1.479              0.977
 Vibration    31          0.767              1.466              0.956
 Vibration    32          0.784              1.422              0.885
 Vibration    33          0.796              1.394              0.842
 Vibration    34          0.819              1.335              0.761
 Vibration    35          0.826              1.320              0.742
 Vibration    36          0.847              1.270              0.681
 Vibration    37          0.861              1.237              0.643
 Vibration    38          0.879              1.197              0.601
 Vibration    39          0.885              1.184              0.588
 Vibration    40          0.896              1.159              0.562
 Vibration    41          0.929              1.090              0.499
 Vibration    42          0.940              1.068              0.480
 Vibration    43          0.970              1.008              0.431
 Vibration    44          0.976              0.997              0.422

 Optimization completed.
    -- Stationary point found.
 Normal termination of Gaussian 16 at Tue Jun 22 14:21:50 2021.
