 Gaussian 16, Revision B.01,
 Gaussian 16:  ES64L-G16RevB.01 20-Dec-2017

 --------------------------------------
 #P pm6 opt=loose freq int=(grid=99590)
 --------------------------------------

 ------------
 offspring-02
 ------------
 Symbolic Z-matrix:
 Charge =  0 Multiplicity = 1

 SCF Done:  E(RPM6) = -0.753646743483     A.U. after   14 cycles
 SCF Done:  E(RPM6) = -0.763601721835     A.U. after   13 cycles
 SCF Done:  E(RPM6) = -0.770279597561     A.U. after   11 cycles
 SCF Done:  E(RPM6) = -0.774778109343     A.U. after   12 cycles
 SCF Done:  E(RPM6) = -0.776338250740     A.U. after   12 cycles
 SCF Done:  E(RPM6) = -0.777333321573     A.U. after   12 cycles
 SCF Done:  E(RPM6) = -0.779372291581     A.U. after   13 cycles
 SCF Done:  E(RPM6) = -0.780591295483     A.U. after   13 cycles
 SCF Done:  E(RPM6) = -0.781500814094     A.U. after   12 cycles
 SCF Done:  E(RPM6) = -0.782662457742     A.U. after   12 cycles
 SCF Done:  E(RPM6) = -0.788596904925     A.U. after   12 cycles
 SCF Done:  E(RPM6) = -0.788822894508     A.U. after   11 cycles
 SCF Done:  E(RPM6) = -0.788902852810     A.U. after   12 cycles
 SCF Done:  E(RPM6) = -0.788936125148     A.U. after   11 cycles
 SCF Done:  E(RPM6) = -0.788959361011     A.U. after   10 cycles
 SCF Done:  E(RPM6) = -0.788967222850     A.U. after   10 cycles
 SCF Done:  E(RPM6) = -0.788971639495     A.U. after    9 cycles
 SCF Done:  E(RPM6) = -0.788975612134     A.U. after    9 cycles
 SCF Done:  E(RPM6) = -0.788977114679     A.U. after    9 cycles
 Optimization completed.
    -- Stationary point found.
 Normal termination of Gaussian 16 at Tue Jun 22 14:21:23 2021.

 -------------------------------------------------------------
 #P Geom=AllCheck Guess=TCheck SCRF=Check GenChk RPM6/ZDO Freq
 -------------------------------------------------------------

 Structure from the checkpoint file:  "/scratch-data/gaussian/Gau-26875.chk"
 ------------
 offspring-02
 ------------
 Charge =  0 Multiplicity = 1

                         Standard orientation:
 ---------------------------------------------------------------------
 Center     Atomic      Atomic             Coordinates (Angstroms)
 Number     Number       Type             X           Y           Z
 ---------------------------------------------------------------------
      1          8           0       -3.840278    1.380260    0.719495
      2          6           0       -3.287132    1.006948   -0.544202
      3          6           0       -3.486148   -0.506564   -0.806275
      4          8           0       -4.851747   -0.726428   -0.427252
      5          6           0       -2.556277   -1.383592    0.057928
      6          6           0       -1.094227   -0.900020   -0.076361
      7          8           0       -1.022152    0.484236    0.308741
      8          6           0       -1.792437    1.392767   -0.514336
      9          6           0       -1.540780    2.751264    0.164019
     10          8           0       -0.361619    3.341345   -0.377323
     11          8           0        2.210900    2.066036    0.472281
     12          6           0        2.474072    0.646214    0.483179
     13          6           0        1.446341   -0.029152    1.411051
     14          6           0        1.033198   -1.462309    1.023079
     15          6           0        1.679233   -1.971925   -0.285153
     16          8           0        1.686348   -0.956720   -1.281908
     17          6           0        2.378407    0.274276   -1.009101
     18          6           0        3.771301    0.131382   -1.667988
     19          8           0        4.765730    0.876964   -0.966404
     20          8           0        2.971705   -2.474454   -0.068412
     21          8           0       -0.399019   -1.592536    0.961710
     22          8           0        2.154468   -0.100183    2.663435
     23          8           0       -2.684988   -2.692452   -0.511237
     24          1           0       -3.828181    1.596188   -1.325016
     25          1           0       -3.372827   -0.767071   -1.884138
     26          1           0       -5.053760   -1.692713   -0.457403
     27          1           0       -2.873129   -1.395074    1.126336
     28          1           0       -0.625487   -1.047063   -1.068928
     29          1           0       -1.363591    1.372262   -1.543089
     30          1           0       -2.338841    3.482680   -0.067094
     31          1           0       -1.454907    2.630771    1.260603
     32          1           0        0.443307    2.820865   -0.102227
     33          1           0        3.510599    0.489591    0.885568
     34          1           0        0.536628    0.619160    1.529818
     35          1           0        1.263269   -2.170881    1.863067
     36          1           0        1.126253   -2.804075   -0.781852
     37          1           0        1.740619    1.024098   -1.542939
     38          1           0        4.136104   -0.916065   -1.607883
     39          1           0        3.744875    0.438093   -2.727765
     40          1           0        4.577255    1.840962   -1.027359
     41          1           0        1.524758   -0.196669    3.409934
     42          1           0        2.457867    2.456533    1.342675
     43          1           0       -2.201389   -3.346865    0.044332
     44          1           0        3.550827   -1.863426    0.440824
     45          1           0       -4.688326    0.884417    0.872487
 ---------------------------------------------------------------------

 SCF Done:  E(RPM6) = -0.788977114676     A.U. after    2 cycles

 The electronic state is 1-A.
 Alpha  occ. eigenvalues --   -1.17647  -1.16346  -1.14006  -1.13718  -1.12704
 Alpha  occ. eigenvalues --   -1.12256  -1.11027  -1.10318  -1.09878  -1.08988
 Alpha  occ. eigenvalues --   -1.08626  -1.01555  -1.01122  -1.00534  -0.98492
 Alpha  occ. eigenvalues --   -0.92686  -0.90831  -0.88096  -0.86047  -0.84034
 Alpha  occ. eigenvalues --   -0.81900  -0.77489  -0.76399  -0.73488  -0.72107
 Alpha  occ. eigenvalues --   -0.70880  -0.69319  -0.67901  -0.67409  -0.66489
 Alpha  occ. eigenvalues --   -0.65572  -0.65194  -0.64706  -0.63798  -0.62502
 Alpha  occ. eigenvalues --   -0.60932  -0.60461  -0.59824  -0.57868  -0.57045
 Alpha  occ. eigenvalues --   -0.56363  -0.55688  -0.54900  -0.54248  -0.54000
 Alpha  occ. eigenvalues --   -0.52808  -0.52021  -0.51834  -0.51440  -0.50222
 Alpha  occ. eigenvalues --   -0.49676  -0.49304  -0.48225  -0.47487  -0.46904
 Alpha  occ. eigenvalues --   -0.46833  -0.45488  -0.44796  -0.43386  -0.42806
 Alpha  occ. eigenvalues --   -0.42596  -0.41966  -0.41577  -0.40293  -0.40135
 Alpha  occ. eigenvalues --   -0.39456  -0.38869  -0.38407
 Alpha virt. eigenvalues --    0.01550   0.02852   0.03369   0.05200   0.05536
 Alpha virt. eigenvalues --    0.05908   0.06013   0.06692   0.07699   0.08001
 Alpha virt. eigenvalues --    0.08294   0.08497   0.08597   0.09211   0.09452

 Mulliken charges:
               1
     1  O   -0.544638
     2  C    0.076198
     3  C    0.070692
     4  O   -0.556261
     5  C    0.015066
     6  C    0.311654
     7  O   -0.514216
     8  C    0.074494
     9  C   -0.005137
    10  O   -0.555416
    11  O   -0.567264
    12  C    0.066735
    13  C    0.049464
    14  C   -0.018109
    15  C    0.327605
    16  O   -0.489548
    17  C    0.076205
    18  C   -0.062983
    19  O   -0.536195
    20  O   -0.543788
    21  O   -0.450211
    22  O   -0.567518
    23  O   -0.552471
    24  H    0.142692
    25  H    0.147982
    26  H    0.336719
    27  H    0.170526
    28  H    0.139746
    29  H    0.139795
    30  H    0.162481
    31  H    0.148385
    32  H    0.331295
    33  H    0.172054
    34  H    0.190451
    35  H    0.185954
    36  H    0.174312
    37  H    0.170791
    38  H    0.175697
    39  H    0.136300
    40  H    0.316933
    41  H    0.324596
    42  H    0.330408
    43  H    0.328409
    44  H    0.329851
    45  H    0.340265
 Sum of Mulliken charges =   0.00000

 Dipole moment (field-independent basis, Debye):
    X=             -1.1583    Y=             -1.5157    Z=              0.6583  Tot=              2.0180
 N-N= 1.400412567547D+03 E-N=-2.403180653026D+03  KE=-3.043840334367D+02
  Exact polarizability: 145.824   3.267 135.930   6.863  -1.566 105.503
 Approx polarizability:  97.274   2.049 101.353   7.650  -2.315  81.068
 Leave Link  601 at Tue Jun 22 14:21:24 2021, MaxMem=  2147483648 cpu:               0.2 elap:               0.0
 (Enter /home/matma/Programs/gaussian/G16_x86_SSE4/tar/g16/l701.exe)
 ... and contract with generalized density number  0.
 Compute integral second derivatives.
 Leave Link  701 at Tue Jun 22 14:21:24 2021, MaxMem=  2147483648 cpu:               0.6 elap:               0.1
 (Enter /home/matma/Programs/gaussian/G16_x86_SSE4/tar/g16/l702.exe)
 L702 exits ... SP integral derivatives will be done elsewhere.

                      1                      2                      3
                      A                      A                      A
 Frequencies --     25.5092                27.3840                38.5094
 Red. masses --      5.7273                 5.9871                 5.7324
 Frc consts  --      0.0022                 0.0026                 0.0050
 IR Inten    --      2.4229                 0.7165                 3.7989

                      4                      5                      6
                      A                      A                      A
 Frequencies --     54.6961                67.3535                71.0824
 Red. masses --      3.6712                 5.9977                 6.2875
 Frc consts  --      0.0065                 0.0160                 0.0187
 IR Inten    --      1.9356                 5.6425                 3.0440

                      7                      8                      9
                      A                      A                      A
 Frequencies --     74.9522                94.1111               102.2090
 Red. masses --      5.5537                 5.1820                 4.4426
 Frc consts  --      0.0184                 0.0270                 0.0273
 IR Inten    --      0.2860                 1.9510                 1.6386

                     10                     11                     12
                      A                      A                      A
 Frequencies --    117.4674               124.2853               151.3731
 Red. masses --      5.2028                 6.8161                 5.1318
 Frc consts  --      0.0423                 0.0620                 0.0693
 IR Inten    --      2.7973                 1.0250                 1.0602

                     13                     14                     15
                      A                      A                      A
 Frequencies --    174.7915               179.0903               212.4869
 Red. masses --      5.4732                 4.7037                 4.5697
 Frc consts  --      0.0985                 0.0889                 0.1216
 IR Inten    --      1.8533                 5.5308                11.8450

                     16                     17                     18
                      A                      A                      A
 Frequencies --    230.3378               240.0742               250.4438
 Red. masses --      4.9357                 5.0675                 3.5565
 Frc consts  --      0.1543                 0.1721                 0.1314
 IR Inten    --      9.2341                20.2801                25.0064

                     19                     20                     21
                      A                      A                      A
 Frequencies --    264.6273               276.4295               287.7705
 Red. masses --      2.4031                 2.2561                 3.6258
 Frc consts  --      0.0991                 0.1016                 0.1769
 IR Inten    --     68.8494                32.8730                11.0379

                     22                     23                     24
                      A                      A                      A
 Frequencies --    301.6052               309.4376               314.5835
 Red. masses --      1.2307                 1.7944                 1.4999
 Frc consts  --      0.0660                 0.1012                 0.0875
 IR Inten    --    111.8800                22.1553               133.9378

                     25                     26                     27
                      A                      A                      A
 Frequencies --    319.3601               326.0956               345.2059
 Red. masses --      3.9602                 1.8639                 2.3943
 Frc consts  --      0.2380                 0.1168                 0.1681
 IR Inten    --     57.8287                73.8317                42.1741

                     28                     29                     30
                      A                      A                      A
 Frequencies --    351.0119               363.4674               368.4681
 Red. masses --      1.4576                 2.3075                 2.8728
 Frc consts  --      0.1058                 0.1796                 0.2298
 IR Inten    --    139.5992                17.4020                25.9157

                     31                     32                     33
                      A                      A                      A
 Frequencies --    386.1191               395.0048               401.8525
 Red. masses --      1.4574                 2.4059                 1.8092
 Frc consts  --      0.1280                 0.2212                 0.1721
 IR Inten    --    214.0970                 8.3810                 6.3354

                     34                     35                     36
                      A                      A                      A
 Frequencies --    405.5027               435.5773               456.7842
 Red. masses --      4.8408                 4.1479                 4.6493
 Frc consts  --      0.4690                 0.4637                 0.5716
 IR Inten    --      9.1014                 4.5793                17.8278

                     37                     38                     39
                      A                      A                      A
 Frequencies --    482.1155               491.0248               504.7440
 Red. masses --      4.6741                 2.1332                 1.7990
 Frc consts  --      0.6401                 0.3030                 0.2700
 IR Inten    --      1.7720                46.9368                32.8252

                     40                     41                     42
                      A                      A                      A
 Frequencies --    518.9056               544.1556               550.5008
 Red. masses --      4.7161                 4.3832                 3.4125
 Frc consts  --      0.7482                 0.7647                 0.6093
 IR Inten    --      7.3909                27.5553                47.3393

                     43                     44                     45
                      A                      A                      A
 Frequencies --    554.2910               637.9199               671.5448
 Red. masses --      3.9140                 4.4065                 5.9484
 Frc consts  --      0.7085                 1.0565                 1.5805
 IR Inten    --      1.2872                18.7954                21.6052

                     46                     47                     48
                      A                      A                      A
 Frequencies --    729.5878               744.8214               853.7784
 Red. masses --      5.7306                 4.5739                 2.1710
 Frc consts  --      1.7972                 1.4950                 0.9324
 IR Inten    --      3.8024                 6.5787                23.5289

                     49                     50                     51
                      A                      A                      A
 Frequencies --    875.1560               919.9790               934.3186
 Red. masses --      1.7166                 3.1463                 2.6408
 Frc consts  --      0.7746                 1.5690                 1.3582
 IR Inten    --     15.2992                18.0893                14.4467

                     52                     53                     54
                      A                      A                      A
 Frequencies --    971.3550               987.1693               992.6659
 Red. masses --      2.4040                 2.4893                 2.2281
 Frc consts  --      1.3364                 1.4293                 1.2936
 IR Inten    --      5.1787                13.2655                49.9412

                     55                     56                     57
                      A                      A                      A
 Frequencies --   1014.7272              1041.2409              1050.4752
 Red. masses --      2.4962                 1.8940                 2.6712
 Frc consts  --      1.5143                 1.2098                 1.7367
 IR Inten    --     80.8776                33.0212                83.1745

                     58                     59                     60
                      A                      A                      A
 Frequencies --   1055.6226              1062.3796              1073.7652
 Red. masses --      2.1136                 2.4890                 2.4273
 Frc consts  --      1.3877                 1.6551                 1.6489
 IR Inten    --    112.7250                33.7551                12.8848

                     61                     62                     63
                      A                      A                      A
 Frequencies --   1078.7452              1082.6178              1084.5273
 Red. masses --      2.3764                 2.6590                 2.4307
 Frc consts  --      1.6294                 1.8362                 1.6845
 IR Inten    --    144.6496                80.4834                68.4152

                     64                     65                     66
                      A                      A                      A
 Frequencies --   1103.8106              1110.8546              1115.5894
 Red. masses --      3.1026                 1.9230                 2.1194
 Frc consts  --      2.2272                 1.3981                 1.5541
 IR Inten    --    161.3555                14.8831                99.7491

                     67                     68                     69
                      A                      A                      A
 Frequencies --   1117.3374              1121.2454              1125.2462
 Red. masses --      2.4762                 2.0417                 1.7918
 Frc consts  --      1.8214                 1.5124                 1.3367
 IR Inten    --     97.6912                70.8510                10.6961

                     70                     71                     72
                      A                      A                      A
 Frequencies --   1135.7343              1145.7872              1152.6443
 Red. masses --      2.2211                 3.2690                 2.0005
 Frc consts  --      1.6880                 2.5286                 1.5659
 IR Inten    --     75.8413                55.6930                57.0461

                     73                     74                     75
                      A                      A                      A
 Frequencies --   1160.8939              1162.6336              1163.3532
 Red. masses --      1.7831                 1.5893                 1.4108
 Frc consts  --      1.4158                 1.2657                 1.1249
 IR Inten    --     15.9148                 3.6162                44.8771

                     76                     77                     78
                      A                      A                      A
 Frequencies --   1165.8994              1169.6860              1171.3847
 Red. masses --      1.5765                 1.4977                 1.5554
 Frc consts  --      1.2626                 1.2073                 1.2574
 IR Inten    --     23.1310                 2.4148                15.5810

                     79                     80                     81
                      A                      A                      A
 Frequencies --   1177.1257              1187.0024              1192.3856
 Red. masses --      1.6224                 1.8592                 1.3444
 Frc consts  --      1.3245                 1.5434                 1.1262
 IR Inten    --     18.9157                43.1476                14.7051

                     82                     83                     84
                      A                      A                      A
 Frequencies --   1195.3036              1206.7852              1210.1340
 Red. masses --      1.4572                 1.4152                 1.6470
 Frc consts  --      1.2266                 1.2143                 1.4211
 IR Inten    --     25.4695                26.7914                20.1878

                     85                     86                     87
                      A                      A                      A
 Frequencies --   1218.2228              1222.4293              1230.2127
 Red. masses --      1.3734                 1.7989                 1.5304
 Frc consts  --      1.2009                 1.5838                 1.3646
 IR Inten    --      2.0409                21.7618                62.1021

                     88                     89                     90
                      A                      A                      A
 Frequencies --   1231.8860              1237.7791              1239.6168
 Red. masses --      1.7433                 1.3718                 1.4785
 Frc consts  --      1.5587                 1.2383                 1.3386
 IR Inten    --     17.3775                 4.6333                31.6872

                     91                     92                     93
                      A                      A                      A
 Frequencies --   1245.5250              1249.0585              1257.1861
 Red. masses --      1.4497                 1.4499                 1.4004
 Frc consts  --      1.3250                 1.3327                 1.3041
 IR Inten    --     25.8814                14.8165                23.3700

                     94                     95                     96
                      A                      A                      A
 Frequencies --   1260.0357              1262.0524              1263.6791
 Red. masses --      1.3304                 1.2085                 1.2570
 Frc consts  --      1.2445                 1.1341                 1.1827
 IR Inten    --     16.3351                 2.8402                 2.3781

                     97                     98                     99
                      A                      A                      A
 Frequencies --   1275.9304              1277.5569              1287.4557
 Red. masses --      1.5189                 1.6079                 1.5231
 Frc consts  --      1.4570                 1.5462                 1.4874
 IR Inten    --     11.8636                19.0800                 8.8702

                    100                    101                    102
                      A                      A                      A
 Frequencies --   1316.5063              1325.4311              1329.4778
 Red. masses --      1.2880                 1.7152                 1.6559
 Frc consts  --      1.3152                 1.7754                 1.7244
 IR Inten    --      6.2596                 8.7355                 2.0026

                    103                    104                    105
                      A                      A                      A
 Frequencies --   1340.4806              1342.9475              1348.8771
 Red. masses --      1.5854                 1.7639                 1.2311
 Frc consts  --      1.6785                 1.8743                 1.3198
 IR Inten    --      3.2710                11.2790                 7.0155

                    106                    107                    108
                      A                      A                      A
 Frequencies --   1349.9547              1381.5497              2477.6193
 Red. masses --      1.3444                 1.5423                 1.0552
 Frc consts  --      1.4435                 1.7344                 3.8164
 IR Inten    --      7.3588                36.6793               391.5997

                    109                    110                    111
                      A                      A                      A
 Frequencies --   2515.6277              2519.4319              2536.5813
 Red. masses --      1.0530                 1.0552                 1.0547
 Frc consts  --      3.9261                 3.9463                 3.9983
 IR Inten    --    210.2208               205.7001                99.1968

                    112                    113                    114
                      A                      A                      A
 Frequencies --   2537.0728              2541.5627              2544.4799
 Red. masses --      1.0547                 1.0545                 1.0548
 Frc consts  --      3.9999                 4.0133                 4.0235
 IR Inten    --    257.4231               282.2120               345.0208

                    115                    116                    117
                      A                      A                      A
 Frequencies --   2549.7677              2615.6135              2636.9515
 Red. masses --      1.0531                 1.0638                 1.0651
 Frc consts  --      4.0339                 4.2880                 4.3635
 IR Inten    --    252.9228               120.1673                88.0998

                    118                    119                    120
                      A                      A                      A
 Frequencies --   2642.2511              2651.1330              2659.0334
 Red. masses --      1.0641                 1.0836                 1.0806
 Frc consts  --      4.3770                 4.4872                 4.5017
 IR Inten    --     16.2103                34.2084                49.3195

                    121                    122                    123
                      A                      A                      A
 Frequencies --   2660.1785              2666.1923              2669.1780
 Red. masses --      1.0642                 1.0627                 1.0654
 Frc consts  --      4.4372                 4.4507                 4.4723
 IR Inten    --     37.7799                20.0531               149.5598

                    124                    125                    126
                      A                      A                      A
 Frequencies --   2671.6283              2674.6886              2680.6535
 Red. masses --      1.0688                 1.0722                 1.0717
 Frc consts  --      4.4948                 4.5191                 4.5374
 IR Inten    --     14.3037               129.2634               140.4985

                    127                    128                    129
                      A                      A                      A
 Frequencies --   2682.0015              2718.2067              2723.9530
 Red. masses --      1.0661                 1.0453                 1.0460
 Frc consts  --      4.5182                 4.5503                 4.5727
 IR Inten    --    102.1788                40.4995                49.4801

 - Thermochemistry -
 -------------------
 Temperature   298.150 Kelvin.  Pressure   1.00000 Atm.
 Atom     1 has atomic number  8 and mass  15.99491

 Molecular mass:   342.11621 amu.
 Principal axes and moments of inertia in atomic units:
                           1         2         3
     Eigenvalues --  4394.93613********************
           X            1.00000   0.00233  -0.00067
           Y           -0.00233   1.00000  -0.00165
           Z            0.00067   0.00165   1.00000
 This molecule is an asymmetric top.
 Rotational symmetry number  1.
 Warning -- assumption of classical behavior for rotation
           may cause significant error
 Rotational temperatures (Kelvin)      0.01971     0.00866     0.00724
 Rotational constants (GHZ):           0.41064     0.18044     0.15083
 Zero-point vibrational energy     851811.1 (Joules/Mol)
                                  203.58773 (Kcal/Mol)
 Warning -- explicit consideration of  43 degrees of freedom as
           vibrations may cause significant error
 Vibrational temperatures:     36.70    39.40    55.41    78.70    96.91
          (Kelvin)            102.27   107.84   135.40   147.06   169.01
                              178.82   217.79   251.49   257.67   305.72
                              331.40   345.41   360.33   380.74   397.72
                              414.04   433.94   445.21   452.62   459.49
                              469.18   496.67   505.03   522.95   530.14
                              555.54   568.32   578.18   583.43   626.70
                              657.21   693.66   706.48   726.21   746.59
                              782.92   792.05   797.50   917.82   966.20
                             1049.71  1071.63  1228.40  1259.15  1323.64
                             1344.28  1397.56  1420.32  1428.22  1459.97
                             1498.11  1511.40  1518.81  1528.53  1544.91
                             1552.07  1557.65  1560.39  1588.14  1598.27
                             1605.08  1607.60  1613.22  1618.98  1634.07
                             1648.53  1658.40  1670.27  1672.77  1673.81
                             1677.47  1682.92  1685.36  1693.62  1707.83
                             1715.58  1719.78  1736.29  1741.11  1752.75
                             1758.80  1770.00  1772.41  1780.89  1783.53
                             1792.03  1797.12  1808.81  1812.91  1815.81
                             1818.15  1835.78  1838.12  1852.36  1894.16
                             1907.00  1912.82  1928.65  1932.20  1940.73
                             1942.28  1987.74  3564.74  3619.43  3624.90
                             3649.57  3650.28  3656.74  3660.94  3668.55
                             3763.28  3793.99  3801.61  3814.39  3825.76
                             3827.40  3836.06  3840.35  3843.88  3848.28
                             3856.86  3858.80  3910.89  3919.16

 Zero-point correction=                           0.324438 (Hartree/Particle)
 Thermal correction to Energy=                    0.349647
 Thermal correction to Enthalpy=                  0.350591
 Thermal correction to Gibbs Free Energy=         0.269478
 Sum of electronic and zero-point Energies=             -0.464539
 Sum of electronic and thermal Energies=                -0.439330
 Sum of electronic and thermal Enthalpies=              -0.438386
 Sum of electronic and thermal Free Energies=           -0.519499

                     E (Thermal)             CV                S
                      KCal/Mol        Cal/Mol-Kelvin    Cal/Mol-Kelvin
 Total                  219.407             95.098            170.716
 Electronic               0.000              0.000              0.000
 Translational            0.889              2.981             43.384
 Rotational               0.889              2.981             34.619
 Vibrational            217.629             89.136             92.713
 Vibration     1          0.593              1.985              6.151
 Vibration     2          0.593              1.984              6.010
 Vibration     3          0.594              1.981              5.334
 Vibration     4          0.596              1.976              4.640
 Vibration     5          0.598              1.970              4.229
 Vibration     6          0.598              1.968              4.123
 Vibration     7          0.599              1.966              4.019
 Vibration     8          0.603              1.953              3.573
 Vibration     9          0.604              1.947              3.412
 Vibration    10          0.608              1.935              3.142
 Vibration    11          0.610              1.929              3.033
 Vibration    12          0.619              1.901              2.655
 Vibration    13          0.627              1.873              2.383
 Vibration    14          0.629              1.868              2.338
 Vibration    15          0.644              1.822              2.022
 Vibration    16          0.652              1.795              1.876
 Vibration    17          0.657              1.779              1.802
 Vibration    18          0.663              1.762              1.727
 Vibration    19          0.671              1.738              1.631
 Vibration    20          0.678              1.717              1.556
 Vibration    21          0.685              1.696              1.487
 Vibration    22          0.694              1.671              1.408
 Vibration    23          0.699              1.656              1.365
 Vibration    24          0.702              1.646              1.338
 Vibration    25          0.705              1.637              1.313
 Vibration    26          0.710              1.623              1.279
 Vibration    27          0.724              1.585              1.188
 Vibration    28          0.728              1.573              1.162
 Vibration    29          0.737              1.547              1.107
 Vibration    30          0.741              1.537              1.086
 Vibration    31          0.755              1.500              1.015
 Vibration    32          0.762              1.481              0.981
 Vibration    33          0.767              1.466              0.956
 Vibration    34          0.770              1.458              0.943
 Vibration    35          0.796              1.393              0.841
 Vibration    36          0.815              1.346              0.776
 Vibration    37          0.838              1.290              0.704
 Vibration    38          0.847              1.270              0.681
 Vibration    39          0.860              1.239              0.646
 Vibration    40          0.874              1.208              0.613
 Vibration    41          0.899              1.152              0.556
 Vibration    42          0.906              1.139              0.543
 Vibration    43          0.910              1.130              0.535

                           ! Non-Optimized Parameters !
 Normal termination of Gaussian 16 at Tue Jun 22 14:21:24 2021.
