 Gaussian 16, Revision B.01,
 Gaussian 16:  ES64L-G16RevB.01 20-Dec-2017

 --------------------------------------
 #P pm6 opt=loose freq int=(grid=99590)
 --------------------------------------

 ----------
 initial-05
 ----------
 Symbolic Z-matrix:
 Charge =  0 Multiplicity = 1

 SCF Done:  E(RPM6) = -0.637649795036     A.U. after   16 cycles
 SCF Done:  E(RPM6) = -0.690198391663     A.U. after   13 cycles
 SCF Done:  E(RPM6) = -0.727814475083     A.U. after   13 cycles
 SCF Done:  E(RPM6) = -0.746887773828     A.U. after   13 cycles
 SCF Done:  E(RPM6) = -0.754384277042     A.U. after   12 cycles
 SCF Done:  E(RPM6) = -0.758751610618     A.U. after   12 cycles
 SCF Done:  E(RPM6) = -0.762757486459     A.U. after   12 cycles
 SCF Done:  E(RPM6) = -0.767088067856     A.U. after   12 cycles
 SCF Done:  E(RPM6) = -0.768371179966     A.U. after   12 cycles
 SCF Done:  E(RPM6) = -0.770465122826     A.U. after   13 cycles
 SCF Done:  E(RPM6) = -0.785011369896     A.U. after   12 cycles
 SCF Done:  E(RPM6) = -0.785181624975     A.U. after   11 cycles
 SCF Done:  E(RPM6) = -0.785250288778     A.U. after   12 cycles
 SCF Done:  E(RPM6) = -0.785268637788     A.U. after   10 cycles
 SCF Done:  E(RPM6) = -0.785277961141     A.U. after   10 cycles
 SCF Done:  E(RPM6) = -0.785285981176     A.U. after   10 cycles
 SCF Done:  E(RPM6) = -0.785289277197     A.U. after   10 cycles
 SCF Done:  E(RPM6) = -0.785291891125     A.U. after    9 cycles
 SCF Done:  E(RPM6) = -0.785293889767     A.U. after    9 cycles
 Optimization completed.
    -- Stationary point found.
 Normal termination of Gaussian 16 at Tue Jun 22 14:18:49 2021.

 -------------------------------------------------------------
 #P Geom=AllCheck Guess=TCheck SCRF=Check GenChk RPM6/ZDO Freq
 -------------------------------------------------------------

 Structure from the checkpoint file:  "/scratch-data/gaussian/Gau-29993.chk"
 ----------
 initial-05
 ----------
 Charge =  0 Multiplicity = 1

                         Standard orientation:
 ---------------------------------------------------------------------
 Center     Atomic      Atomic             Coordinates (Angstroms)
 Number     Number       Type             X           Y           Z
 ---------------------------------------------------------------------
      1          8           0        3.569425   -0.057729   -1.822584
      2          6           0        3.822591   -0.106899   -0.416306
      3          6           0        3.454366   -1.497664    0.151068
      4          8           0        4.058614   -2.402893   -0.782541
      5          6           0        1.929387   -1.717430    0.181027
      6          6           0        1.233340   -0.549386    0.914595
      7          8           0        1.584315    0.713360    0.325935
      8          6           0        2.994924    1.024114    0.230484
      9          6           0        3.000661    2.304019   -0.627075
     10          8           0        2.990978    3.447086    0.226734
     11          8           0       -4.093519   -1.566875    0.288149
     12          6           0       -3.431175   -0.299576    0.348603
     13          6           0       -2.337049   -0.499112    1.418220
     14          6           0       -1.042583    0.287028    1.141627
     15          6           0       -1.145005    1.450512    0.123283
     16          8           0       -2.089610    1.280136   -0.941860
     17          6           0       -2.798080    0.031058   -1.018442
     18          6           0       -3.852552    0.293924   -2.108048
     19          8           0       -4.631019   -0.896786   -2.299587
     20          8           0       -1.548102    2.626558    0.785611
     21          8           0       -0.146245   -0.709074    0.587953
     22          8           0       -2.793914    0.039278    2.669491
     23          8           0        1.766410   -2.920345    0.942035
     24          1           0        4.915467    0.080548   -0.270822
     25          1           0        3.897179   -1.679782    1.157231
     26          1           0        3.786413   -3.328718   -0.570723
     27          1           0        1.509118   -1.848649   -0.843337
     28          1           0        1.392131   -0.514049    2.008618
     29          1           0        3.359602    1.229801    1.263964
     30          1           0        3.940122    2.410143   -1.204827
     31          1           0        2.139061    2.316789   -1.321577
     32          1           0        2.096696    3.575757    0.615120
     33          1           0       -4.164513    0.476769    0.662935
     34          1           0       -2.117045   -1.589642    1.536677
     35          1           0       -0.641963    0.692980    2.105879
     36          1           0       -0.171950    1.703970   -0.364614
     37          1           0       -2.077144   -0.763022   -1.320396
     38          1           0       -4.600427    1.049854   -1.799705
     39          1           0       -3.384297    0.616051   -3.054537
     40          1           0       -4.118257   -1.563952   -2.806968
     41          1           0       -3.539523   -0.502373    3.015472
     42          1           0       -4.737504   -1.577082   -0.480249
     43          1           0        0.819444   -3.193874    0.938036
     44          1           0       -2.475171    2.573877    1.107291
     45          1           0        3.860937   -0.910642   -2.242366
 ---------------------------------------------------------------------

 SCF Done:  E(RPM6) = -0.785293889775     A.U. after    2 cycles

 The electronic state is 1-A.
 Alpha  occ. eigenvalues --   -1.16681  -1.16257  -1.14250  -1.13536  -1.12893
 Alpha  occ. eigenvalues --   -1.11943  -1.11165  -1.09784  -1.09524  -1.08889
 Alpha  occ. eigenvalues --   -1.08667  -1.02074  -1.00937  -0.99681  -0.98341
 Alpha  occ. eigenvalues --   -0.92187  -0.90402  -0.87472  -0.86133  -0.83319
 Alpha  occ. eigenvalues --   -0.82263  -0.77323  -0.75456  -0.73546  -0.71532
 Alpha  occ. eigenvalues --   -0.70899  -0.69297  -0.68002  -0.67842  -0.66428
 Alpha  occ. eigenvalues --   -0.65900  -0.65235  -0.64485  -0.63125  -0.61829
 Alpha  occ. eigenvalues --   -0.61128  -0.60349  -0.58917  -0.58203  -0.57381
 Alpha  occ. eigenvalues --   -0.55989  -0.55224  -0.55034  -0.54015  -0.53950
 Alpha  occ. eigenvalues --   -0.53076  -0.52634  -0.51885  -0.51611  -0.50118
 Alpha  occ. eigenvalues --   -0.49910  -0.48368  -0.47759  -0.47418  -0.47002
 Alpha  occ. eigenvalues --   -0.46394  -0.45575  -0.44272  -0.43135  -0.42903
 Alpha  occ. eigenvalues --   -0.42167  -0.41500  -0.40544  -0.40456  -0.40217
 Alpha  occ. eigenvalues --   -0.39499  -0.39155  -0.38560
 Alpha virt. eigenvalues --    0.01495   0.02857   0.03231   0.05046   0.05664
 Alpha virt. eigenvalues --    0.06692   0.06989   0.07266   0.07701   0.08047
 Alpha virt. eigenvalues --    0.08187   0.08481   0.08791   0.09156   0.09206

 Mulliken charges:
               1
     1  O   -0.543621
     2  C    0.072424
     3  C    0.070859
     4  O   -0.554914
     5  C    0.015487
     6  C    0.323326
     7  O   -0.520581
     8  C    0.081068
     9  C   -0.012048
    10  O   -0.538814
    11  O   -0.572928
    12  C    0.045232
    13  C    0.104323
    14  C    0.003033
    15  C    0.353750
    16  O   -0.496505
    17  C    0.050379
    18  C   -0.040529
    19  O   -0.542673
    20  O   -0.546424
    21  O   -0.466905
    22  O   -0.559477
    23  O   -0.551257
    24  H    0.145102
    25  H    0.147885
    26  H    0.337078
    27  H    0.172632
    28  H    0.123754
    29  H    0.141256
    30  H    0.168291
    31  H    0.152742
    32  H    0.317751
    33  H    0.145060
    34  H    0.162358
    35  H    0.178198
    36  H    0.185885
    37  H    0.148416
    38  H    0.166084
    39  H    0.146329
    40  H    0.315742
    41  H    0.328164
    42  H    0.345572
    43  H    0.329650
    44  H    0.328952
    45  H    0.339894
 Sum of Mulliken charges =  -0.00000

 Dipole moment (field-independent basis, Debye):
    X=             -0.6543    Y=             -3.7873    Z=              0.3026  Tot=              3.8553
 N-N= 1.358424539885D+03 E-N=-2.319468060374D+03  KE=-3.043187351183D+02
  Exact polarizability: 145.775   7.254 135.519  -4.863   5.154 111.663
 Approx polarizability:  95.386   7.259 100.514  -4.167   6.521  82.540
 Leave Link  601 at Tue Jun 22 14:18:50 2021, MaxMem=  2147483648 cpu:               0.2 elap:               0.0
 (Enter /home/matma/Programs/gaussian/G16_x86_SSE4/tar/g16/l701.exe)
 ... and contract with generalized density number  0.
 Compute integral second derivatives.
 Leave Link  701 at Tue Jun 22 14:18:50 2021, MaxMem=  2147483648 cpu:               0.6 elap:               0.1
 (Enter /home/matma/Programs/gaussian/G16_x86_SSE4/tar/g16/l702.exe)
 L702 exits ... SP integral derivatives will be done elsewhere.

                      1                      2                      3
                      A                      A                      A
 Frequencies --     10.2904                13.1560                27.7181
 Red. masses --      6.4252                 6.0730                 6.1279
 Frc consts  --      0.0004                 0.0006                 0.0028
 IR Inten    --      0.3190                 1.0424                 2.5752

                      4                      5                      6
                      A                      A                      A
 Frequencies --     31.5032                41.1093                61.1583
 Red. masses --      5.3569                 5.9187                 4.5864
 Frc consts  --      0.0031                 0.0059                 0.0101
 IR Inten    --      0.0246                 1.0786                 2.8830

                      7                      8                      9
                      A                      A                      A
 Frequencies --     67.0728                72.0509                80.8152
 Red. masses --      7.3497                 6.3988                 4.9786
 Frc consts  --      0.0195                 0.0196                 0.0192
 IR Inten    --      1.1500                 4.6492                 2.0067

                     10                     11                     12
                      A                      A                      A
 Frequencies --     85.6142               110.4892               150.3050
 Red. masses --      3.2149                 5.6405                 5.3372
 Frc consts  --      0.0139                 0.0406                 0.0710
 IR Inten    --      0.1537                10.4842                 3.1948

                     13                     14                     15
                      A                      A                      A
 Frequencies --    169.1715               186.8126               198.9017
 Red. masses --      5.2385                 4.4127                 4.6683
 Frc consts  --      0.0883                 0.0907                 0.1088
 IR Inten    --      2.8790                 3.6453                 2.1684

                     16                     17                     18
                      A                      A                      A
 Frequencies --    218.9324               229.8894               253.4575
 Red. masses --      5.0175                 5.0878                 5.1263
 Frc consts  --      0.1417                 0.1584                 0.1940
 IR Inten    --      4.7988                12.9189                 1.7870

                     19                     20                     21
                      A                      A                      A
 Frequencies --    260.4207               283.5277               290.1565
 Red. masses --      3.2341                 2.5353                 1.3548
 Frc consts  --      0.1292                 0.1201                 0.0672
 IR Inten    --     22.1827                18.4245               166.9812

                     22                     23                     24
                      A                      A                      A
 Frequencies --    298.2334               305.6892               306.5932
 Red. masses --      1.5163                 1.9330                 1.7959
 Frc consts  --      0.0795                 0.1064                 0.0995
 IR Inten    --     61.6874                55.4955                56.2503

                     25                     26                     27
                      A                      A                      A
 Frequencies --    312.5541               324.2281               327.5640
 Red. masses --      3.3952                 1.3844                 1.8765
 Frc consts  --      0.1954                 0.0857                 0.1186
 IR Inten    --     23.4605                89.8050                61.4567

                     28                     29                     30
                      A                      A                      A
 Frequencies --    342.9567               347.7252               356.5499
 Red. masses --      2.4663                 1.8470                 1.6656
 Frc consts  --      0.1709                 0.1316                 0.1248
 IR Inten    --     23.2576                93.2054                97.8565

                     31                     32                     33
                      A                      A                      A
 Frequencies --    360.4478               381.3061               397.2822
 Red. masses --      1.2975                 3.3314                 4.0750
 Frc consts  --      0.0993                 0.2854                 0.3789
 IR Inten    --    143.1042                57.9264                24.2270

                     34                     35                     36
                      A                      A                      A
 Frequencies --    404.7307               418.1777               448.3910
 Red. masses --      3.8130                 5.2535                 4.1175
 Frc consts  --      0.3680                 0.5413                 0.4877
 IR Inten    --      5.8210                13.0300                12.8652

                     37                     38                     39
                      A                      A                      A
 Frequencies --    469.6892               483.0949               496.9537
 Red. masses --      4.1852                 1.9176                 1.9629
 Frc consts  --      0.5440                 0.2637                 0.2856
 IR Inten    --     11.5451                56.2596                63.3600

                     40                     41                     42
                      A                      A                      A
 Frequencies --    498.6274               547.0555               556.8346
 Red. masses --      3.4797                 5.1381                 4.1475
 Frc consts  --      0.5097                 0.9060                 0.7577
 IR Inten    --     26.3452                20.7041                 2.9992

                     43                     44                     45
                      A                      A                      A
 Frequencies --    573.1213               582.8120               643.7519
 Red. masses --      4.1578                 5.3956                 4.6428
 Frc consts  --      0.8047                 1.0798                 1.1336
 IR Inten    --     21.4887                 5.5097                19.6996

                     46                     47                     48
                      A                      A                      A
 Frequencies --    721.7256               732.9183               870.1483
 Red. masses --      4.6393                 5.7726                 1.6970
 Frc consts  --      1.4238                 1.8270                 0.7571
 IR Inten    --      7.9088                 7.8843                16.0045

                     49                     50                     51
                      A                      A                      A
 Frequencies --    878.5166               908.6424               918.7256
 Red. masses --      1.7353                 3.0277                 3.2121
 Frc consts  --      0.7891                 1.4728                 1.5974
 IR Inten    --     11.3038                 7.4324                28.0664

                     52                     53                     54
                      A                      A                      A
 Frequencies --    985.1679               992.0169              1011.6550
 Red. masses --      2.3480                 2.1757                 1.7619
 Frc consts  --      1.3426                 1.2615                 1.0624
 IR Inten    --     11.9728                26.2555                35.2928

                     55                     56                     57
                      A                      A                      A
 Frequencies --   1033.4546              1043.2504              1051.3169
 Red. masses --      2.4457                 2.4252                 2.2886
 Frc consts  --      1.5390                 1.5551                 1.4903
 IR Inten    --     11.2571                55.0321               240.1632

                     58                     59                     60
                      A                      A                      A
 Frequencies --   1063.1620              1070.0860              1073.4294
 Red. masses --      2.4680                 1.7342                 2.9121
 Frc consts  --      1.6436                 1.1700                 1.9770
 IR Inten    --     98.0335                42.5966                17.8294

                     61                     62                     63
                      A                      A                      A
 Frequencies --   1080.3399              1082.2739              1098.9223
 Red. masses --      2.6604                 2.3913                 2.9206
 Frc consts  --      1.8294                 1.6503                 2.0780
 IR Inten    --     62.2302                59.9528               168.9181

                     64                     65                     66
                      A                      A                      A
 Frequencies --   1104.7762              1109.7812              1112.7747
 Red. masses --      2.6275                 3.2778                 2.1165
 Frc consts  --      1.8895                 2.3786                 1.5442
 IR Inten    --     86.3720                19.8442                11.0503

                     67                     68                     69
                      A                      A                      A
 Frequencies --   1117.6984              1123.4965              1125.2921
 Red. masses --      2.2490                 2.2021                 2.1320
 Frc consts  --      1.6554                 1.6377                 1.5906
 IR Inten    --     60.7377                17.6527                78.6015

                     70                     71                     72
                      A                      A                      A
 Frequencies --   1138.0679              1143.9419              1150.3016
 Red. masses --      2.6898                 2.5439                 1.8251
 Frc consts  --      2.0526                 1.9614                 1.4228
 IR Inten    --    200.5049                62.4091                16.4306

                     73                     74                     75
                      A                      A                      A
 Frequencies --   1157.2087              1161.4107              1170.7835
 Red. masses --      2.2308                 1.3145                 1.4194
 Frc consts  --      1.7601                 1.0447                 1.1464
 IR Inten    --     58.3565                10.9242                33.4570

                     76                     77                     78
                      A                      A                      A
 Frequencies --   1173.1401              1176.0265              1179.8524
 Red. masses --      1.3244                 1.3897                 1.4714
 Frc consts  --      1.0739                 1.1324                 1.2068
 IR Inten    --     36.0062                19.6885                10.2445

                     79                     80                     81
                      A                      A                      A
 Frequencies --   1180.3462              1185.9493              1189.5719
 Red. masses --      1.4678                 1.5952                 1.4225
 Frc consts  --      1.2048                 1.3219                 1.1860
 IR Inten    --     45.1290                33.5875                12.0095

                     82                     83                     84
                      A                      A                      A
 Frequencies --   1193.7267              1203.3323              1210.9596
 Red. masses --      1.3357                 1.4657                 1.6403
 Frc consts  --      1.1214                 1.2504                 1.4172
 IR Inten    --      8.1716                35.9913                63.5003

                     85                     86                     87
                      A                      A                      A
 Frequencies --   1212.1474              1214.0195              1216.6196
 Red. masses --      1.4560                 1.5090                 1.6382
 Frc consts  --      1.2605                 1.3104                 1.4287
 IR Inten    --      6.2913                24.7133                 6.3279

                     88                     89                     90
                      A                      A                      A
 Frequencies --   1230.6181              1232.5688              1234.8734
 Red. masses --      1.4567                 1.4121                 1.4954
 Frc consts  --      1.2998                 1.2640                 1.3436
 IR Inten    --     44.6213                15.3255                35.1356

                     91                     92                     93
                      A                      A                      A
 Frequencies --   1246.4117              1248.0883              1251.4985
 Red. masses --      1.5033                 1.4123                 1.9219
 Frc consts  --      1.3760                 1.2962                 1.7736
 IR Inten    --     37.8548                 9.0188                17.2610

                     94                     95                     96
                      A                      A                      A
 Frequencies --   1257.4014              1263.5446              1265.4055
 Red. masses --      1.7345                 1.1975                 1.4775
 Frc consts  --      1.6158                 1.1264                 1.3939
 IR Inten    --     21.8395                 7.7467                27.5467

                     97                     98                     99
                      A                      A                      A
 Frequencies --   1269.8286              1277.6322              1283.8773
 Red. masses --      1.3664                 1.6675                 1.6741
 Frc consts  --      1.2982                 1.6037                 1.6259
 IR Inten    --      4.9726                16.4939                 1.6464

                    100                    101                    102
                      A                      A                      A
 Frequencies --   1314.5680              1332.0114              1337.1920
 Red. masses --      1.3264                 1.6793                 1.2029
 Frc consts  --      1.3505                 1.7555                 1.2672
 IR Inten    --     35.2936                 2.5524                 6.2831

                    103                    104                    105
                      A                      A                      A
 Frequencies --   1342.4371              1344.8751              1346.5285
 Red. masses --      1.3311                 1.8050                 1.6949
 Frc consts  --      1.4134                 1.9235                 1.8106
 IR Inten    --     15.2044                 4.1270                 6.2004

                    106                    107                    108
                      A                      A                      A
 Frequencies --   1361.5797              1379.1636              2461.2211
 Red. masses --      1.5692                 1.5779                 1.0562
 Frc consts  --      1.7140                 1.7684                 3.7698
 IR Inten    --     24.3964                33.8751               410.2978

                    109                    110                    111
                      A                      A                      A
 Frequencies --   2522.3635              2537.0924              2542.2850
 Red. masses --      1.0551                 1.0548                 1.0523
 Frc consts  --      3.9552                 4.0005                 4.0071
 IR Inten    --    269.2324               264.2863               219.0268

                    112                    113                    114
                      A                      A                      A
 Frequencies --   2543.1936              2544.0776              2547.3561
 Red. masses --      1.0543                 1.0536                 1.0534
 Frc consts  --      4.0175                 4.0180                 4.0273
 IR Inten    --     93.1757               462.0894               209.2774

                    115                    116                    117
                      A                      A                      A
 Frequencies --   2549.1342              2642.4171              2654.0424
 Red. masses --      1.0531                 1.0675                 1.0639
 Frc consts  --      4.0319                 4.3917                 4.4152
 IR Inten    --    130.9638               148.1352                60.5949

                    118                    119                    120
                      A                      A                      A
 Frequencies --   2655.2787              2657.0440              2659.1951
 Red. masses --      1.0617                 1.0835                 1.0698
 Frc consts  --      4.4105                 4.5071                 4.4571
 IR Inten    --     14.5771                60.7741                44.2845

                    121                    122                    123
                      A                      A                      A
 Frequencies --   2659.5372              2660.7684              2666.8000
 Red. masses --      1.0647                 1.0703                 1.0639
 Frc consts  --      4.4370                 4.4645                 4.4578
 IR Inten    --     29.6173                42.9775                26.3071

                    124                    125                    126
                      A                      A                      A
 Frequencies --   2669.7809              2670.5708              2680.9359
 Red. masses --      1.0689                 1.0654                 1.0723
 Frc consts  --      4.4888                 4.4770                 4.5411
 IR Inten    --     21.9180                39.1117               138.6191

                    127                    128                    129
                      A                      A                      A
 Frequencies --   2684.1720              2720.5879              2727.3300
 Red. masses --      1.0733                 1.0461                 1.0463
 Frc consts  --      4.5561                 4.5618                 4.5853
 IR Inten    --    115.6397                50.6071                51.3018

 - Thermochemistry -
 -------------------
 Temperature   298.150 Kelvin.  Pressure   1.00000 Atm.
 Atom     1 has atomic number  8 and mass  15.99491

 Molecular mass:   342.11621 amu.
 Principal axes and moments of inertia in atomic units:
                           1         2         3
     Eigenvalues --  4873.49338********************
           X            1.00000   0.00115   0.00294
           Y           -0.00115   1.00000  -0.00066
           Z           -0.00294   0.00065   1.00000
 This molecule is an asymmetric top.
 Rotational symmetry number  1.
 Warning -- assumption of classical behavior for rotation
           may cause significant error
 Rotational temperatures (Kelvin)      0.01777     0.00720     0.00647
 Rotational constants (GHZ):           0.37032     0.14994     0.13476
 Zero-point vibrational energy     849762.4 (Joules/Mol)
                                  203.09810 (Kcal/Mol)
 Warning -- explicit consideration of  44 degrees of freedom as
           vibrations may cause significant error
 Vibrational temperatures:     14.81    18.93    39.88    45.33    59.15
          (Kelvin)             87.99    96.50   103.67   116.28   123.18
                              158.97   216.26   243.40   268.78   286.18
                              314.99   330.76   364.67   374.69   407.93
                              417.47   429.09   439.82   441.12   449.70
                              466.49   471.29   493.44   500.30   513.00
                              518.60   548.61   571.60   582.32   601.66
                              645.13   675.78   695.07   715.01   717.41
                              787.09   801.16   824.59   838.54   926.22
                             1038.40  1054.51  1251.95  1263.99  1307.33
                             1321.84  1417.44  1427.29  1455.55  1486.91
                             1501.00  1512.61  1529.65  1539.62  1544.43
                             1554.37  1557.15  1581.10  1589.53  1596.73
                             1601.03  1608.12  1616.46  1619.04  1637.43
                             1645.88  1655.03  1664.97  1671.01  1684.50
                             1687.89  1692.04  1697.54  1698.25  1706.32
                             1711.53  1717.51  1731.33  1742.30  1744.01
                             1746.70  1750.44  1770.58  1773.39  1776.71
                             1793.31  1795.72  1800.63  1809.12  1817.96
                             1820.64  1827.00  1838.23  1847.21  1891.37
                             1916.47  1923.92  1931.47  1934.98  1937.35
                             1959.01  1984.31  3541.15  3629.12  3650.31
                             3657.78  3659.09  3660.36  3665.08  3667.64
                             3801.85  3818.58  3820.35  3822.89  3825.99
                             3826.48  3828.25  3836.93  3841.22  3842.36
                             3857.27  3861.92  3914.32  3924.02

 Zero-point correction=                           0.323657 (Hartree/Particle)
 Thermal correction to Energy=                    0.349522
 Thermal correction to Enthalpy=                  0.350466
 Thermal correction to Gibbs Free Energy=         0.264709
 Sum of electronic and zero-point Energies=             -0.461636
 Sum of electronic and thermal Energies=                -0.435772
 Sum of electronic and thermal Enthalpies=              -0.434828
 Sum of electronic and thermal Free Energies=           -0.520584

                     E (Thermal)             CV                S
                      KCal/Mol        Cal/Mol-Kelvin    Cal/Mol-Kelvin
 Total                  219.328             95.718            180.489
 Electronic               0.000              0.000              0.000
 Translational            0.889              2.981             43.384
 Rotational               0.889              2.981             35.017
 Vibrational            217.551             89.756            102.088
 Vibration     1          0.593              1.987              7.954
 Vibration     2          0.593              1.987              7.466
 Vibration     3          0.593              1.984              5.986
 Vibration     4          0.594              1.983              5.732
 Vibration     5          0.594              1.981              5.205
 Vibration     6          0.597              1.973              4.419
 Vibration     7          0.598              1.970              4.237
 Vibration     8          0.598              1.967              4.097
 Vibration     9          0.600              1.962              3.871
 Vibration    10          0.601              1.959              3.758
 Vibration    11          0.606              1.941              3.260
 Vibration    12          0.618              1.902              2.668
 Vibration    13          0.625              1.880              2.445
 Vibration    14          0.632              1.858              2.259
 Vibration    15          0.637              1.841              2.143
 Vibration    16          0.647              1.812              1.968
 Vibration    17          0.652              1.795              1.880
 Vibration    18          0.665              1.757              1.706
 Vibration    19          0.668              1.745              1.659
 Vibration    20          0.682              1.704              1.512
 Vibration    21          0.686              1.692              1.473
 Vibration    22          0.691              1.677              1.427
 Vibration    23          0.696              1.663              1.386
 Vibration    24          0.697              1.661              1.381
 Vibration    25          0.701              1.650              1.349
 Vibration    26          0.709              1.627              1.289
 Vibration    27          0.711              1.620              1.272
 Vibration    28          0.722              1.590              1.198
 Vibration    29          0.725              1.580              1.176
 Vibration    30          0.732              1.562              1.137
 Vibration    31          0.735              1.554              1.120
 Vibration    32          0.751              1.510              1.034
 Vibration    33          0.764              1.476              0.973
 Vibration    34          0.770              1.460              0.945
 Vibration    35          0.781              1.431              0.898
 Vibration    36          0.807              1.364              0.801
 Vibration    37          0.827              1.317              0.738
 Vibration    38          0.839              1.288              0.702
 Vibration    39          0.852              1.257              0.666
 Vibration    40          0.854              1.253              0.662
 Vibration    41          0.902              1.146              0.550
 Vibration    42          0.912              1.125              0.530
 Vibration    43          0.929              1.089              0.498
 Vibration    44          0.940              1.069              0.480

                           ! Non-Optimized Parameters !
 Normal termination of Gaussian 16 at Tue Jun 22 14:18:50 2021.
