 Gaussian 16, Revision B.01,
 Gaussian 16:  ES64L-G16RevB.01 20-Dec-2017

 --------------------------------------
 #P pm6 opt=loose freq int=(grid=99590)
 --------------------------------------

 ------------
 offspring-16
 ------------
 Symbolic Z-matrix:
 Charge =  0 Multiplicity = 1

 SCF Done:  E(RPM6) = -0.795150859203     A.U. after   14 cycles
 SCF Done:  E(RPM6) = -0.795114339777     A.U. after   10 cycles
 SCF Done:  E(RPM6) = -0.795065983360     A.U. after   10 cycles
 SCF Done:  E(RPM6) = -0.795150379015     A.U. after   10 cycles
 SCF Done:  E(RPM6) = -0.795152767467     A.U. after    9 cycles
 SCF Done:  E(RPM6) = -0.795138709250     A.U. after   10 cycles
 SCF Done:  E(RPM6) = -0.795138628516     A.U. after   10 cycles
 SCF Done:  E(RPM6) = -0.795155376620     A.U. after    9 cycles
 Optimization completed.
    -- Stationary point found.
 Normal termination of Gaussian 16 at Tue Jun 22 14:23:21 2021.

 -------------------------------------------------------------
 #P Geom=AllCheck Guess=TCheck SCRF=Check GenChk RPM6/ZDO Freq
 -------------------------------------------------------------

 Structure from the checkpoint file:  "/scratch-data/gaussian/Gau-10432.chk"
 ------------
 offspring-16
 ------------
 Charge =  0 Multiplicity = 1

                         Standard orientation:
 ---------------------------------------------------------------------
 Center     Atomic      Atomic             Coordinates (Angstroms)
 Number     Number       Type             X           Y           Z
 ---------------------------------------------------------------------
      1          8           0       -3.130064    0.525664    1.938915
      2          6           0       -3.732887    0.459202    0.639916
      3          6           0       -3.566279   -0.969445    0.072617
      4          8           0       -3.972790   -1.811587    1.158078
      5          6           0       -2.083615   -1.233178   -0.268061
      6          6           0       -1.629564   -0.247921   -1.361946
      7          8           0       -2.440191    0.920077   -1.428626
      8          6           0       -3.005315    1.503956   -0.234723
      9          6           0       -1.903986    2.266396    0.514902
     10          8           0       -1.053277    2.925127   -0.441219
     11          8           0        3.995798    1.651021   -0.194086
     12          6           0        3.023629    0.686558    0.245794
     13          6           0        1.634300    1.110686   -0.280148
     14          6           0        0.598190   -0.034347   -0.205822
     15          6           0        1.173126   -1.450764   -0.478461
     16          8           0        2.519967   -1.661246   -0.047196
     17          6           0        3.488446   -0.638421   -0.380869
     18          6           0        4.793535   -1.182771    0.238590
     19          8           0        5.408753   -0.247571    1.117357
     20          8           0        0.462339   -2.386458    0.329559
     21          8           0       -0.280004    0.234940   -1.319534
     22          8           0        1.265961    2.147000    0.622856
     23          8           0       -2.056561   -2.551469   -0.818419
     24          1           0       -4.813049    0.707639    0.758061
     25          1           0       -4.224099   -1.167142   -0.802901
     26          1           0       -3.746616   -2.751807    0.944888
     27          1           0       -1.453839   -1.186137    0.653736
     28          1           0       -1.713508   -0.650166   -2.403319
     29          1           0       -3.733271    2.211278   -0.707305
     30          1           0       -2.307429    3.083756    1.140051
     31          1           0       -1.277316    1.601540    1.143120
     32          1           0       -0.941584    2.323420   -1.245056
     33          1           0        3.031753    0.648798    1.362436
     34          1           0        1.692057    1.510343   -1.320554
     35          1           0        0.045131    0.000541    0.761434
     36          1           0        1.046594   -1.776679   -1.532379
     37          1           0        3.552998   -0.561584   -1.488034
     38          1           0        4.583089   -2.055431    0.893817
     39          1           0        5.513228   -1.472332   -0.548283
     40          1           0        5.549831    0.622054    0.654508
     41          1           0        0.526083    2.730004    0.227581
     42          1           0        3.758050    2.537511    0.178552
     43          1           0       -1.191639   -2.993029   -0.588094
     44          1           0        1.025929   -2.684427    1.089958
     45          1           0       -3.419316   -0.261842    2.475582
 ---------------------------------------------------------------------

 SCF Done:  E(RPM6) = -0.795155376598     A.U. after    2 cycles

 The electronic state is 1-A.
 Alpha  occ. eigenvalues --   -1.17732  -1.16439  -1.14675  -1.14119  -1.12769
 Alpha  occ. eigenvalues --   -1.11660  -1.10743  -1.10337  -1.09339  -1.09134
 Alpha  occ. eigenvalues --   -1.07242  -1.02935  -1.00703  -0.99572  -0.98625
 Alpha  occ. eigenvalues --   -0.92589  -0.91702  -0.88575  -0.85343  -0.83599
 Alpha  occ. eigenvalues --   -0.82400  -0.77279  -0.75523  -0.74077  -0.72180
 Alpha  occ. eigenvalues --   -0.70987  -0.70027  -0.68720  -0.68212  -0.66597
 Alpha  occ. eigenvalues --   -0.64977  -0.64832  -0.64305  -0.63171  -0.62302
 Alpha  occ. eigenvalues --   -0.61613  -0.60863  -0.60253  -0.59584  -0.58678
 Alpha  occ. eigenvalues --   -0.56638  -0.56298  -0.55499  -0.55130  -0.54116
 Alpha  occ. eigenvalues --   -0.53107  -0.51897  -0.51384  -0.50269  -0.50161
 Alpha  occ. eigenvalues --   -0.49532  -0.49031  -0.48735  -0.48293  -0.47216
 Alpha  occ. eigenvalues --   -0.47016  -0.45877  -0.45274  -0.43386  -0.42793
 Alpha  occ. eigenvalues --   -0.42476  -0.41615  -0.41480  -0.40756  -0.40446
 Alpha  occ. eigenvalues --   -0.39559  -0.39346  -0.38990
 Alpha virt. eigenvalues --    0.00913   0.02270   0.02968   0.04278   0.05156
 Alpha virt. eigenvalues --    0.05497   0.06116   0.07054   0.07246   0.07272
 Alpha virt. eigenvalues --    0.08057   0.08314   0.08592   0.08873   0.09506

 Mulliken charges:
               1
     1  O   -0.560035
     2  C    0.072493
     3  C    0.083814
     4  O   -0.559511
     5  C   -0.012910
     6  C    0.318297
     7  O   -0.469458
     8  C    0.066561
     9  C   -0.044043
    10  O   -0.558129
    11  O   -0.561447
    12  C    0.075657
    13  C    0.087550
    14  C   -0.021341
    15  C    0.345541
    16  O   -0.512649
    17  C    0.077485
    18  C   -0.018227
    19  O   -0.537860
    20  O   -0.595932
    21  O   -0.509097
    22  O   -0.594135
    23  O   -0.550586
    24  H    0.146567
    25  H    0.153711
    26  H    0.340144
    27  H    0.172991
    28  H    0.176001
    29  H    0.167320
    30  H    0.163021
    31  H    0.155427
    32  H    0.345232
    33  H    0.171841
    34  H    0.153180
    35  H    0.170495
    36  H    0.148107
    37  H    0.140605
    38  H    0.170469
    39  H    0.129976
    40  H    0.330691
    41  H    0.359238
    42  H    0.338407
    43  H    0.343617
    44  H    0.356067
    45  H    0.344855
 Sum of Mulliken charges =   0.00000

 Dipole moment (field-independent basis, Debye):
    X=             -1.7368    Y=             -1.8493    Z=             -1.2250  Tot=              2.8172
 N-N= 1.399670618529D+03 E-N=-2.401346682328D+03  KE=-3.045701936118D+02
  Exact polarizability: 154.371   2.112 133.022   1.772  -0.181 103.696
 Approx polarizability:  99.496   2.334  98.900   1.692  -1.253  84.267
 Leave Link  601 at Tue Jun 22 14:23:22 2021, MaxMem=  2147483648 cpu:               0.2 elap:               0.0
 (Enter /home/matma/Programs/gaussian/G16_x86_SSE4/tar/g16/l701.exe)
 ... and contract with generalized density number  0.
 Compute integral second derivatives.
 Leave Link  701 at Tue Jun 22 14:23:22 2021, MaxMem=  2147483648 cpu:               0.6 elap:               0.1
 (Enter /home/matma/Programs/gaussian/G16_x86_SSE4/tar/g16/l702.exe)
 L702 exits ... SP integral derivatives will be done elsewhere.

                      1                      2                      3
                      A                      A                      A
 Frequencies --     22.8912                27.0877                44.1492
 Red. masses --      6.2732                 4.8479                 5.6419
 Frc consts  --      0.0019                 0.0021                 0.0065
 IR Inten    --      0.2511                 0.6197                 0.2428

                      4                      5                      6
                      A                      A                      A
 Frequencies --     54.2895                75.8060                86.9107
 Red. masses --      6.0385                 5.9078                 5.7319
 Frc consts  --      0.0105                 0.0200                 0.0255
 IR Inten    --      4.4275                 4.5320                 1.5667

                      7                      8                      9
                      A                      A                      A
 Frequencies --     92.1264               103.7039               106.2761
 Red. masses --      4.6398                 4.7568                 4.6079
 Frc consts  --      0.0232                 0.0301                 0.0307
 IR Inten    --      0.4126                 4.1912                 3.3795

                     10                     11                     12
                      A                      A                      A
 Frequencies --    133.7412               151.1478               164.5994
 Red. masses --      5.9317                 3.8435                 6.3954
 Frc consts  --      0.0625                 0.0517                 0.1021
 IR Inten    --      9.6398                 4.9502                 5.8380

                     13                     14                     15
                      A                      A                      A
 Frequencies --    185.6387               199.9168               212.1164
 Red. masses --      6.3375                 5.8147                 5.4615
 Frc consts  --      0.1287                 0.1369                 0.1448
 IR Inten    --      3.0629                20.5590                 0.2936

                     16                     17                     18
                      A                      A                      A
 Frequencies --    228.2765               241.0488               244.3766
 Red. masses --      5.7842                 1.4499                 4.4634
 Frc consts  --      0.1776                 0.0496                 0.1570
 IR Inten    --      5.0670                96.2671                 7.5090

                     19                     20                     21
                      A                      A                      A
 Frequencies --    267.8964               284.1388               287.5055
 Red. masses --      5.4157                 5.1497                 2.8916
 Frc consts  --      0.2290                 0.2450                 0.1408
 IR Inten    --      8.4674                 3.5471                73.2552

                     22                     23                     24
                      A                      A                      A
 Frequencies --    303.0256               330.5458               336.4182
 Red. masses --      6.0168                 3.5776                 1.4390
 Frc consts  --      0.3255                 0.2303                 0.0960
 IR Inten    --     14.9975                28.0695               111.2345

                     25                     26                     27
                      A                      A                      A
 Frequencies --    359.6493               371.9704               373.6758
 Red. masses --      6.5580                 1.4078                 1.9748
 Frc consts  --      0.4998                 0.1148                 0.1625
 IR Inten    --      5.2200               140.2792                42.3153

                     28                     29                     30
                      A                      A                      A
 Frequencies --    380.3901               391.3810               396.1844
 Red. masses --      3.2423                 2.0150                 3.0865
 Frc consts  --      0.2764                 0.1819                 0.2854
 IR Inten    --     14.1007                82.9975                41.1856

                     31                     32                     33
                      A                      A                      A
 Frequencies --    402.0151               422.2760               435.2621
 Red. masses --      3.4496                 1.8116                 2.5753
 Frc consts  --      0.3285                 0.1903                 0.2875
 IR Inten    --     28.3128                41.9127                18.0088

                     34                     35                     36
                      A                      A                      A
 Frequencies --    461.8318               468.7793               491.2833
 Red. masses --      3.7383                 2.8387                 3.3461
 Frc consts  --      0.4698                 0.3675                 0.4758
 IR Inten    --      0.9589                11.8209                58.5900

                     37                     38                     39
                      A                      A                      A
 Frequencies --    506.3377               523.3778               529.7172
 Red. masses --      2.1146                 1.4281                 2.8450
 Frc consts  --      0.3194                 0.2305                 0.4704
 IR Inten    --    126.7606                83.8451                10.4761

                     40                     41                     42
                      A                      A                      A
 Frequencies --    541.9257               572.7605               583.0955
 Red. masses --      1.7142                 3.4638                 3.7300
 Frc consts  --      0.2966                 0.6695                 0.7472
 IR Inten    --     49.8468                26.4793                25.0478

                     43                     44                     45
                      A                      A                      A
 Frequencies --    611.2454               616.5852               624.8737
 Red. masses --      4.7151                 2.6828                 1.3113
 Frc consts  --      1.0379                 0.6009                 0.3017
 IR Inten    --     18.4786                 2.2228               151.3265

                     46                     47                     48
                      A                      A                      A
 Frequencies --    658.1039               736.9284               837.1749
 Red. masses --      5.0898                 3.8709                 2.7515
 Frc consts  --      1.2988                 1.2386                 1.1362
 IR Inten    --      7.5831                13.1127                34.9366

                     49                     50                     51
                      A                      A                      A
 Frequencies --    874.5412               936.4357               964.1392
 Red. masses --      1.8150                 2.2213                 3.9500
 Frc consts  --      0.8179                 1.1477                 2.1633
 IR Inten    --     14.3465                17.4451                14.8444

                     52                     53                     54
                      A                      A                      A
 Frequencies --    982.9666               987.8390              1005.5046
 Red. masses --      1.9488                 2.7806                 3.2988
 Frc consts  --      1.1094                 1.5987                 1.9651
 IR Inten    --     19.3194                19.8293                 5.1165

                     55                     56                     57
                      A                      A                      A
 Frequencies --   1008.2754              1034.9811              1048.1499
 Red. masses --      3.4878                 2.9992                 2.4634
 Frc consts  --      2.0891                 1.8929                 1.5945
 IR Inten    --    188.3982               114.0107               116.5876

                     58                     59                     60
                      A                      A                      A
 Frequencies --   1060.6499              1065.7050              1081.7547
 Red. masses --      2.6789                 2.1624                 1.8389
 Frc consts  --      1.7756                 1.4470                 1.2679
 IR Inten    --    147.3810               214.2054                21.1349

                     61                     62                     63
                      A                      A                      A
 Frequencies --   1085.6398              1091.2276              1097.5422
 Red. masses --      1.9969                 1.8276                 2.5561
 Frc consts  --      1.3867                 1.2822                 1.8142
 IR Inten    --     30.7672                38.1527                48.4453

                     64                     65                     66
                      A                      A                      A
 Frequencies --   1100.9433              1105.8104              1110.9536
 Red. masses --      2.5413                 1.8388                 2.1793
 Frc consts  --      1.8149                 1.3248                 1.5848
 IR Inten    --     86.9078               117.3279                 5.8199

                     67                     68                     69
                      A                      A                      A
 Frequencies --   1115.8851              1121.0214              1135.2305
 Red. masses --      2.3133                 2.5914                 2.1590
 Frc consts  --      1.6971                 1.9187                 1.6393
 IR Inten    --     24.2696                38.0697                48.7309

                     70                     71                     72
                      A                      A                      A
 Frequencies --   1137.7565              1141.7106              1145.1634
 Red. masses --      2.2436                 1.9720                 1.5965
 Frc consts  --      1.7112                 1.5145                 1.2336
 IR Inten    --     50.5148                23.2586                17.8888

                     73                     74                     75
                      A                      A                      A
 Frequencies --   1149.5406              1158.4815              1163.9285
 Red. masses --      1.7717                 1.4390                 1.7607
 Frc consts  --      1.3794                 1.1379                 1.4054
 IR Inten    --     24.4898                37.2798                21.6098

                     76                     77                     78
                      A                      A                      A
 Frequencies --   1167.5386              1175.2259              1179.1599
 Red. masses --      1.4708                 1.3764                 1.6829
 Frc consts  --      1.1812                 1.1200                 1.3786
 IR Inten    --      2.6256                17.0667                48.4014

                     79                     80                     81
                      A                      A                      A
 Frequencies --   1183.3565              1187.8947              1192.0242
 Red. masses --      1.5131                 1.6328                 1.5510
 Frc consts  --      1.2484                 1.3575                 1.2984
 IR Inten    --      7.8330                48.6824                 2.6183

                     82                     83                     84
                      A                      A                      A
 Frequencies --   1196.5848              1196.6845              1199.9360
 Red. masses --      1.2566                 1.2944                 1.6183
 Frc consts  --      1.0600                 1.0922                 1.3729
 IR Inten    --      8.2774                 9.0573                20.4986

                     85                     86                     87
                      A                      A                      A
 Frequencies --   1205.9185              1208.3419              1215.6682
 Red. masses --      1.3534                 1.3559                 1.8446
 Frc consts  --      1.1596                 1.1664                 1.6061
 IR Inten    --     60.8536                16.2972                70.0126

                     88                     89                     90
                      A                      A                      A
 Frequencies --   1222.1123              1225.7866              1235.5830
 Red. masses --      1.4685                 1.5391                 1.7700
 Frc consts  --      1.2923                 1.3625                 1.5920
 IR Inten    --      7.8859                18.4233                 2.4572

                     91                     92                     93
                      A                      A                      A
 Frequencies --   1239.0395              1244.9913              1246.4100
 Red. masses --      1.6928                 1.5696                 1.5106
 Frc consts  --      1.5312                 1.4334                 1.3827
 IR Inten    --     12.4439                23.5583                26.8114

                     94                     95                     96
                      A                      A                      A
 Frequencies --   1248.9717              1256.4812              1262.6663
 Red. masses --      1.5512                 1.4169                 1.2437
 Frc consts  --      1.4257                 1.3180                 1.1683
 IR Inten    --     63.0379                 6.2161                12.4752

                     97                     98                     99
                      A                      A                      A
 Frequencies --   1263.1984              1276.4795              1280.0574
 Red. masses --      1.3019                 1.6997                 1.3625
 Frc consts  --      1.2240                 1.6317                 1.3153
 IR Inten    --     15.9092                 8.1917                 0.3515

                    100                    101                    102
                      A                      A                      A
 Frequencies --   1319.8888              1333.0490              1342.6494
 Red. masses --      1.6827                 1.6367                 1.7175
 Frc consts  --      1.7271                 1.7136                 1.8242
 IR Inten    --     17.7568                53.8397                31.2034

                    103                    104                    105
                      A                      A                      A
 Frequencies --   1357.1046              1358.5367              1368.9721
 Red. masses --      1.8377                 1.5656                 1.5818
 Frc consts  --      1.9942                 1.7024                 1.7466
 IR Inten    --     33.4726                40.6683                27.1774

                    106                    107                    108
                      A                      A                      A
 Frequencies --   1369.3407              1400.2913              2298.8341
 Red. masses --      1.2193                 1.2137                 1.0605
 Frc consts  --      1.3470                 1.4021                 3.3020
 IR Inten    --     14.6628                43.5909               793.9388

                    109                    110                    111
                      A                      A                      A
 Frequencies --   2485.7881              2490.5239              2506.7510
 Red. masses --      1.0543                 1.0558                 1.0541
 Frc consts  --      3.8383                 3.8585                 3.9026
 IR Inten    --    257.6380               355.4094               247.8657

                    112                    113                    114
                      A                      A                      A
 Frequencies --   2520.2005              2523.6866              2536.6536
 Red. masses --      1.0547                 1.0527                 1.0545
 Frc consts  --      3.9467                 3.9503                 3.9979
 IR Inten    --    103.0525               388.3546               391.8713

                    115                    116                    117
                      A                      A                      A
 Frequencies --   2542.5686              2635.2619              2640.4370
 Red. masses --      1.0546                 1.0630                 1.0780
 Frc consts  --      4.0170                 4.3495                 4.4283
 IR Inten    --    251.0755                28.0402                12.9029

                    118                    119                    120
                      A                      A                      A
 Frequencies --   2651.6357              2652.9043              2658.2721
 Red. masses --      1.0621                 1.0818                 1.0603
 Frc consts  --      4.4000                 4.4859                 4.4143
 IR Inten    --     82.3570                46.4340                38.3355

                    121                    122                    123
                      A                      A                      A
 Frequencies --   2661.5542              2663.1317              2667.0999
 Red. masses --      1.0661                 1.0673                 1.0661
 Frc consts  --      4.4496                 4.4598                 4.4681
 IR Inten    --     61.3585                59.2204                26.6707

                    124                    125                    126
                      A                      A                      A
 Frequencies --   2670.9747              2677.0459              2682.8376
 Red. masses --      1.0704                 1.0680                 1.0680
 Frc consts  --      4.4990                 4.5093                 4.5291
 IR Inten    --     41.0544                65.8396               188.3973

                    127                    128                    129
                      A                      A                      A
 Frequencies --   2684.0586              2715.5120              2720.9859
 Red. masses --      1.0732                 1.0448                 1.0489
 Frc consts  --      4.5555                 4.5393                 4.5754
 IR Inten    --    150.9558                46.0793                48.5674

 - Thermochemistry -
 -------------------
 Temperature   298.150 Kelvin.  Pressure   1.00000 Atm.
 Atom     1 has atomic number  8 and mass  15.99491

 Molecular mass:   342.11621 amu.
 Principal axes and moments of inertia in atomic units:
                           1         2         3
     Eigenvalues --  3882.06281********************
           X            0.99999  -0.00282  -0.00273
           Y            0.00283   0.99999   0.00283
           Z            0.00272  -0.00283   0.99999
 This molecule is an asymmetric top.
 Rotational symmetry number  1.
 Warning -- assumption of classical behavior for rotation
           may cause significant error
 Rotational temperatures (Kelvin)      0.02231     0.00793     0.00667
 Rotational constants (GHZ):           0.46489     0.16515     0.13894
 Zero-point vibrational energy     854366.3 (Joules/Mol)
                                  204.19845 (Kcal/Mol)
 Warning -- explicit consideration of  44 degrees of freedom as
           vibrations may cause significant error
 Vibrational temperatures:     32.94    38.97    63.52    78.11   109.07
          (Kelvin)            125.05   132.55   149.21   152.91   192.42
                              217.47   236.82   267.09   287.64   305.19
                              328.44   346.82   351.60   385.44   408.81
                              413.66   435.99   475.58   484.03   517.46
                              535.18   537.64   547.30   563.11   570.02
                              578.41   607.56   626.25   664.47   674.47
                              706.85   728.51   753.02   762.14   779.71
                              824.07   838.94   879.45   887.13   899.05
                              946.86  1060.28  1204.51  1258.27  1347.32
                             1387.18  1414.27  1421.28  1446.70  1450.68
                             1489.11  1508.05  1526.04  1533.31  1556.40
                             1561.99  1570.03  1579.12  1584.01  1591.01
                             1598.41  1605.51  1612.90  1633.34  1636.98
                             1642.67  1647.63  1653.93  1666.80  1674.63
                             1679.83  1690.89  1696.55  1702.59  1709.12
                             1715.06  1721.62  1721.76  1726.44  1735.05
                             1738.53  1749.08  1758.35  1763.63  1777.73
                             1782.70  1791.26  1793.31  1796.99  1807.80
                             1816.70  1817.46  1836.57  1841.72  1899.03
                             1917.96  1931.77  1952.57  1954.63  1969.65
                             1970.18  2014.71  3307.51  3576.49  3583.31
                             3606.66  3626.01  3631.02  3649.68  3658.19
                             3791.55  3799.00  3815.11  3816.94  3824.66
                             3829.38  3831.65  3837.36  3842.94  3851.67
                             3860.00  3861.76  3907.02  3914.89

 Zero-point correction=                           0.325411 (Hartree/Particle)
 Thermal correction to Energy=                    0.349820
 Thermal correction to Enthalpy=                  0.350764
 Thermal correction to Gibbs Free Energy=         0.271749
 Sum of electronic and zero-point Energies=             -0.469744
 Sum of electronic and thermal Energies=                -0.445335
 Sum of electronic and thermal Enthalpies=              -0.444391
 Sum of electronic and thermal Free Energies=           -0.523406

                     E (Thermal)             CV                S
                      KCal/Mol        Cal/Mol-Kelvin    Cal/Mol-Kelvin
 Total                  219.515             93.784            166.301
 Electronic               0.000              0.000              0.000
 Translational            0.889              2.981             43.384
 Rotational               0.889              2.981             34.665
 Vibrational            217.738             87.822             88.252
 Vibration     1          0.593              1.985              6.366
 Vibration     2          0.593              1.984              6.032
 Vibration     3          0.595              1.980              5.064
 Vibration     4          0.596              1.976              4.655
 Vibration     5          0.599              1.965              3.997
 Vibration     6          0.601              1.958              3.728
 Vibration     7          0.602              1.955              3.614
 Vibration     8          0.605              1.946              3.383
 Vibration     9          0.605              1.944              3.336
 Vibration    10          0.613              1.920              2.892
 Vibration    11          0.619              1.901              2.658
 Vibration    12          0.623              1.886              2.496
 Vibration    13          0.632              1.859              2.271
 Vibration    14          0.638              1.840              2.134
 Vibration    15          0.643              1.822              2.025
 Vibration    16          0.651              1.798              1.892
 Vibration    17          0.658              1.778              1.795
 Vibration    18          0.660              1.772              1.771
 Vibration    19          0.673              1.732              1.610
 Vibration    20          0.683              1.703              1.509
 Vibration    21          0.685              1.697              1.489
 Vibration    22          0.694              1.668              1.400
 Vibration    23          0.713              1.614              1.257
 Vibration    24          0.717              1.603              1.229
 Vibration    25          0.734              1.555              1.124
 Vibration    26          0.744              1.530              1.072
 Vibration    27          0.745              1.526              1.065
 Vibration    28          0.750              1.512              1.038
 Vibration    29          0.759              1.489              0.995
 Vibration    30          0.763              1.478              0.977
 Vibration    31          0.768              1.466              0.955
 Vibration    32          0.785              1.422              0.884
 Vibration    33          0.796              1.393              0.842
 Vibration    34          0.820              1.335              0.761
 Vibration    35          0.826              1.319              0.741
 Vibration    36          0.847              1.269              0.680
 Vibration    37          0.862              1.236              0.642
 Vibration    38          0.878              1.198              0.602
 Vibration    39          0.885              1.184              0.588
 Vibration    40          0.897              1.157              0.561
 Vibration    41          0.929              1.090              0.499
 Vibration    42          0.940              1.068              0.480
 Vibration    43          0.970              1.008              0.431
 Vibration    44          0.976              0.997              0.422

 Optimization completed.
    -- Stationary point found.
 Normal termination of Gaussian 16 at Tue Jun 22 14:23:22 2021.
