 Gaussian 16, Revision B.01,
 Gaussian 16:  ES64L-G16RevB.01 20-Dec-2017

 --------------------------------------
 #P pm6 opt=loose freq int=(grid=99590)
 --------------------------------------

 ----------
 initial-02
 ----------
 Symbolic Z-matrix:
 Charge =  0 Multiplicity = 1

 SCF Done:  E(RPM6) = -0.599448042342     A.U. after   14 cycles
 SCF Done:  E(RPM6) = -0.664434269967     A.U. after   13 cycles
 SCF Done:  E(RPM6) = -0.701864922755     A.U. after   14 cycles
 SCF Done:  E(RPM6) = -0.741682225860     A.U. after   13 cycles
 SCF Done:  E(RPM6) = -0.758110923249     A.U. after   13 cycles
 SCF Done:  E(RPM6) = -0.764111023562     A.U. after   12 cycles
 SCF Done:  E(RPM6) = -0.769110488360     A.U. after   13 cycles
 SCF Done:  E(RPM6) = -0.771581448585     A.U. after   12 cycles
 SCF Done:  E(RPM6) = -0.774746220094     A.U. after   12 cycles
 SCF Done:  E(RPM6) = -0.776030783640     A.U. after   12 cycles
 SCF Done:  E(RPM6) = -0.788958570021     A.U. after   10 cycles
 SCF Done:  E(RPM6) = -0.788963656503     A.U. after   10 cycles
 SCF Done:  E(RPM6) = -0.788967456206     A.U. after   10 cycles
 SCF Done:  E(RPM6) = -0.788974653652     A.U. after   10 cycles
 SCF Done:  E(RPM6) = -0.788986553793     A.U. after   11 cycles
 SCF Done:  E(RPM6) = -0.788995426053     A.U. after   10 cycles
 SCF Done:  E(RPM6) = -0.789000826681     A.U. after   10 cycles
 SCF Done:  E(RPM6) = -0.789001549522     A.U. after   10 cycles
 SCF Done:  E(RPM6) = -0.789002054221     A.U. after   10 cycles
 Optimization completed.
    -- Stationary point found.
 Normal termination of Gaussian 16 at Tue Jun 22 14:18:02 2021.

 -------------------------------------------------------------
 #P Geom=AllCheck Guess=TCheck SCRF=Check GenChk RPM6/ZDO Freq
 -------------------------------------------------------------

 Structure from the checkpoint file:  "/scratch-data/gaussian/Gau-11443.chk"
 ----------
 initial-02
 ----------
 Charge =  0 Multiplicity = 1

                         Standard orientation:
 ---------------------------------------------------------------------
 Center     Atomic      Atomic             Coordinates (Angstroms)
 Number     Number       Type             X           Y           Z
 ---------------------------------------------------------------------
      1          8           0        2.818566    1.543972    1.207774
      2          6           0        3.126328    1.259823   -0.161128
      3          6           0        1.906746    1.551025   -1.061491
      4          8           0        1.436226    2.833445   -0.602134
      5          6           0        0.776448    0.531232   -0.839954
      6          6           0        1.274415   -0.926194   -0.943168
      7          8           0        2.417762   -1.133000   -0.091699
      8          6           0        3.532860   -0.227678   -0.229243
      9          6           0        4.440579   -0.632532    0.948050
     10          8           0        5.454792   -1.524139    0.483323
     11          8           0       -2.556564   -2.528450   -0.751477
     12          6           0       -2.240310   -1.172403   -0.405978
     13          6           0       -3.609756   -0.468624   -0.348137
     14          6           0       -3.630024    0.778775    0.557431
     15          6           0       -2.262052    1.186565    1.143305
     16          8           0       -1.383356    0.140110    1.530155
     17          6           0       -1.531128   -1.186915    0.960265
     18          6           0       -0.101851   -1.753907    0.909527
     19          8           0        0.345842   -1.881462   -0.459717
     20          8           0       -1.602698    1.927367    0.116507
     21          8           0       -4.542969    0.608287    1.634821
     22          8           0       -3.906986    0.057564   -1.649609
     23          8           0       -0.154741    0.718991   -1.909509
     24          1           0        3.984280    1.912711   -0.453529
     25          1           0        2.179780    1.619557   -2.136905
     26          1           0        0.872321    3.246727   -1.295170
     27          1           0        0.290905    0.712696    0.153642
     28          1           0        1.474850   -1.277613   -1.976265
     29          1           0        4.022382   -0.445137   -1.207687
     30          1           0        5.008702    0.226935    1.353880
     31          1           0        3.846421   -1.099232    1.756857
     32          1           0        5.065166   -2.401079    0.274531
     33          1           0       -1.594355   -0.723413   -1.205001
     34          1           0       -4.410844   -1.189866   -0.054138
     35          1           0       -4.069620    1.644095   -0.017441
     36          1           0       -2.341876    1.800474    2.070220
     37          1           0       -2.137813   -1.750059    1.708648
     38          1           0        0.603575   -1.141238    1.507110
     39          1           0       -0.070565   -2.801763    1.265804
     40          1           0       -4.286707   -0.149561    2.207057
     41          1           0       -4.043847   -0.682610   -2.285738
     42          1           0       -1.735383   -2.980879   -1.070862
     43          1           0       -1.031082    1.054787   -1.541844
     44          1           0       -0.717363    2.253014    0.430638
     45          1           0        2.390549    2.434967    1.271832
 ---------------------------------------------------------------------

 SCF Done:  E(RPM6) = -0.789002054237     A.U. after    2 cycles

 The electronic state is 1-A.
 Alpha  occ. eigenvalues --   -1.17632  -1.15935  -1.14159  -1.13352  -1.12699
 Alpha  occ. eigenvalues --   -1.12019  -1.10887  -1.10283  -1.09521  -1.09008
 Alpha  occ. eigenvalues --   -1.08655  -1.02170  -1.00710  -1.00200  -0.98965
 Alpha  occ. eigenvalues --   -0.93736  -0.90265  -0.87352  -0.86752  -0.82855
 Alpha  occ. eigenvalues --   -0.81913  -0.77229  -0.74897  -0.73840  -0.71887
 Alpha  occ. eigenvalues --   -0.71285  -0.69837  -0.68250  -0.67328  -0.66725
 Alpha  occ. eigenvalues --   -0.66034  -0.65393  -0.64794  -0.63509  -0.62514
 Alpha  occ. eigenvalues --   -0.61005  -0.60155  -0.59348  -0.58032  -0.57154
 Alpha  occ. eigenvalues --   -0.55816  -0.55674  -0.55054  -0.54840  -0.54096
 Alpha  occ. eigenvalues --   -0.52815  -0.52416  -0.51750  -0.50957  -0.50289
 Alpha  occ. eigenvalues --   -0.49824  -0.48446  -0.48117  -0.47110  -0.46562
 Alpha  occ. eigenvalues --   -0.45890  -0.45224  -0.44671  -0.44312  -0.43511
 Alpha  occ. eigenvalues --   -0.42284  -0.41746  -0.41023  -0.40507  -0.40362
 Alpha  occ. eigenvalues --   -0.39703  -0.39523  -0.37958
 Alpha virt. eigenvalues --    0.02278   0.03374   0.03928   0.04382   0.04725
 Alpha virt. eigenvalues --    0.06110   0.06566   0.06868   0.07243   0.07824
 Alpha virt. eigenvalues --    0.08040   0.08167   0.09086   0.09360   0.09663

 Mulliken charges:
               1
     1  O   -0.542965
     2  C    0.068409
     3  C    0.057250
     4  O   -0.572579
     5  C   -0.021453
     6  C    0.354915
     7  O   -0.514721
     8  C    0.081420
     9  C   -0.012223
    10  O   -0.540205
    11  O   -0.552996
    12  C    0.036004
    13  C    0.079547
    14  C    0.046399
    15  C    0.316147
    16  O   -0.512578
    17  C    0.060050
    18  C   -0.050649
    19  O   -0.449766
    20  O   -0.592325
    21  O   -0.515664
    22  O   -0.543533
    23  O   -0.565272
    24  H    0.140684
    25  H    0.144722
    26  H    0.333234
    27  H    0.176999
    28  H    0.148070
    29  H    0.139998
    30  H    0.166893
    31  H    0.150767
    32  H    0.314562
    33  H    0.175607
    34  H    0.157397
    35  H    0.210594
    36  H    0.150260
    37  H    0.141660
    38  H    0.177280
    39  H    0.157469
    40  H    0.312238
    41  H    0.326924
    42  H    0.333999
    43  H    0.351149
    44  H    0.342001
    45  H    0.334280
 Sum of Mulliken charges =  -0.00000

 Dipole moment (field-independent basis, Debye):
    X=              0.2092    Y=              0.0746    Z=             -0.0330  Tot=              0.2245
 N-N= 1.405936646855D+03 E-N=-2.414284292988D+03  KE=-3.043917092905D+02
  Exact polarizability: 145.791  -4.836 128.643   2.705   0.518 110.664
 Approx polarizability:  93.592  -2.997  97.757   1.177   0.201  88.534
 Leave Link  601 at Tue Jun 22 14:18:03 2021, MaxMem=  2147483648 cpu:               0.2 elap:               0.0
 (Enter /home/matma/Programs/gaussian/G16_x86_SSE4/tar/g16/l701.exe)
 ... and contract with generalized density number  0.
 Compute integral second derivatives.
 Leave Link  701 at Tue Jun 22 14:18:03 2021, MaxMem=  2147483648 cpu:               0.6 elap:               0.1
 (Enter /home/matma/Programs/gaussian/G16_x86_SSE4/tar/g16/l702.exe)
 L702 exits ... SP integral derivatives will be done elsewhere.

                      1                      2                      3
                      A                      A                      A
 Frequencies --     22.2203                25.9009                27.9970
 Red. masses --      6.1700                 4.7233                 5.6387
 Frc consts  --      0.0018                 0.0019                 0.0026
 IR Inten    --      0.3309                 2.8258                 3.2568

                      4                      5                      6
                      A                      A                      A
 Frequencies --     34.3070                54.7770                58.5957
 Red. masses --      6.2215                 6.2452                 6.0926
 Frc consts  --      0.0043                 0.0110                 0.0123
 IR Inten    --      6.7951                 0.8603                 2.8541

                      7                      8                      9
                      A                      A                      A
 Frequencies --     71.2697                85.1952                94.7771
 Red. masses --      6.2802                 5.5161                 6.5351
 Frc consts  --      0.0188                 0.0236                 0.0346
 IR Inten    --      5.8515                 7.5610                 1.5497

                     10                     11                     12
                      A                      A                      A
 Frequencies --    128.8901               133.9279               179.7022
 Red. masses --      6.6345                 6.2778                 4.5141
 Frc consts  --      0.0649                 0.0663                 0.0859
 IR Inten    --      6.2294                 2.9228                18.6291

                     13                     14                     15
                      A                      A                      A
 Frequencies --    185.0401               210.4420               216.6065
 Red. masses --      4.3963                 3.5048                 3.8311
 Frc consts  --      0.0887                 0.0914                 0.1059
 IR Inten    --     22.6893                88.6177                13.4231

                     16                     17                     18
                      A                      A                      A
 Frequencies --    238.3720               247.9348               254.2639
 Red. masses --      3.9983                 3.7420                 5.2779
 Frc consts  --      0.1339                 0.1355                 0.2010
 IR Inten    --     26.2246                14.7859                 2.3311

                     19                     20                     21
                      A                      A                      A
 Frequencies --    266.8934               272.1674               280.6553
 Red. masses --      2.1147                 3.7060                 1.7021
 Frc consts  --      0.0888                 0.1617                 0.0790
 IR Inten    --    112.0386                40.1426                38.6822

                     22                     23                     24
                      A                      A                      A
 Frequencies --    285.6871               306.7844               313.0940
 Red. masses --      1.8094                 6.5095                 5.7366
 Frc consts  --      0.0870                 0.3610                 0.3313
 IR Inten    --     20.4776                22.1121                 4.9018

                     25                     26                     27
                      A                      A                      A
 Frequencies --    330.8322               340.9330               348.1882
 Red. masses --      1.6892                 1.4721                 1.7610
 Frc consts  --      0.1089                 0.1008                 0.1258
 IR Inten    --    113.2167               118.3972                20.4349

                     28                     29                     30
                      A                      A                      A
 Frequencies --    359.5735               377.4239               384.1315
 Red. masses --      1.1841                 1.2749                 3.5148
 Frc consts  --      0.0902                 0.1070                 0.3056
 IR Inten    --    112.9476                51.8345                34.6399

                     31                     32                     33
                      A                      A                      A
 Frequencies --    394.1733               396.8803               404.1265
 Red. masses --      1.6631                 2.5547                 2.0721
 Frc consts  --      0.1522                 0.2371                 0.1994
 IR Inten    --     35.7146                56.7518                31.8964

                     34                     35                     36
                      A                      A                      A
 Frequencies --    410.1294               430.8237               434.2356
 Red. masses --      1.6118                 4.9182                 3.1999
 Frc consts  --      0.1597                 0.5378                 0.3555
 IR Inten    --    135.4919                 2.2680                26.5833

                     37                     38                     39
                      A                      A                      A
 Frequencies --    452.6536               468.2516               490.0394
 Red. masses --      2.1319                 3.6009                 3.7388
 Frc consts  --      0.2574                 0.4652                 0.5290
 IR Inten    --     11.1699                 9.0672                13.6279

                     40                     41                     42
                      A                      A                      A
 Frequencies --    526.0120               534.6610               566.1182
 Red. masses --      4.7721                 5.5092                 5.6429
 Frc consts  --      0.7780                 0.9279                 1.0655
 IR Inten    --      0.7612                12.9122                14.0273

                     43                     44                     45
                      A                      A                      A
 Frequencies --    590.7863               608.6333               641.7633
 Red. masses --      3.8235                 4.4207                 4.6924
 Frc consts  --      0.7863                 0.9648                 1.1387
 IR Inten    --      2.5477                43.6799                18.7546

                     46                     47                     48
                      A                      A                      A
 Frequencies --    727.3067               735.3765               839.4027
 Red. masses --      5.7751                 5.5443                 2.6238
 Frc consts  --      1.7999                 1.7665                 1.0892
 IR Inten    --     12.8688                 1.4035                 7.3901

                     49                     50                     51
                      A                      A                      A
 Frequencies --    874.2919               907.4594               919.1286
 Red. masses --      1.6659                 2.5713                 3.2600
 Frc consts  --      0.7502                 1.2476                 1.6226
 IR Inten    --     26.0872                28.1254                 5.2542

                     52                     53                     54
                      A                      A                      A
 Frequencies --    949.0055               992.0044               999.5336
 Red. masses --      2.9043                 2.2776                 2.1796
 Frc consts  --      1.5411                 1.3205                 1.2830
 IR Inten    --      6.0495                25.3628                27.0520

                     55                     56                     57
                      A                      A                      A
 Frequencies --   1010.9523              1033.6274              1048.9585
 Red. masses --      2.5868                 2.2450                 2.3059
 Frc consts  --      1.5576                 1.4132                 1.4949
 IR Inten    --    147.0602                51.0478               171.6284

                     58                     59                     60
                      A                      A                      A
 Frequencies --   1054.8267              1064.4640              1071.8893
 Red. masses --      2.1875                 2.4621                 2.5998
 Frc consts  --      1.4340                 1.6437                 1.7599
 IR Inten    --      4.1208                37.6342                71.4811

                     61                     62                     63
                      A                      A                      A
 Frequencies --   1079.2570              1089.0877              1094.4278
 Red. masses --      2.8329                 2.6735                 2.7350
 Frc consts  --      1.9441                 1.8683                 1.9301
 IR Inten    --     45.9601               167.0699                65.9611

                     64                     65                     66
                      A                      A                      A
 Frequencies --   1100.0965              1110.2688              1110.8991
 Red. masses --      2.4413                 2.0613                 2.2551
 Frc consts  --      1.7407                 1.4971                 1.6397
 IR Inten    --     50.5711                85.1259               113.5616

                     67                     68                     69
                      A                      A                      A
 Frequencies --   1119.3186              1122.2101              1124.1458
 Red. masses --      2.5875                 2.3951                 2.1254
 Frc consts  --      1.9100                 1.7771                 1.5825
 IR Inten    --     54.4490               144.9696                65.7487

                     70                     71                     72
                      A                      A                      A
 Frequencies --   1136.3916              1148.5058              1151.9230
 Red. masses --      1.5708                 1.5924                 1.7485
 Frc consts  --      1.1952                 1.2376                 1.3670
 IR Inten    --     26.1069                61.1929                20.8186

                     73                     74                     75
                      A                      A                      A
 Frequencies --   1152.7778              1155.6150              1159.0955
 Red. masses --      1.4708                 1.9505                 1.4507
 Frc consts  --      1.1516                 1.5347                 1.1484
 IR Inten    --     18.1923                 4.3284                45.6439

                     76                     77                     78
                      A                      A                      A
 Frequencies --   1168.5080              1172.0004              1179.7863
 Red. masses --      1.3625                 1.3376                 1.6151
 Frc consts  --      1.0961                 1.0825                 1.3245
 IR Inten    --     24.0484                 2.3316                20.8480

                     79                     80                     81
                      A                      A                      A
 Frequencies --   1186.1924              1188.2821              1189.9697
 Red. masses --      1.3857                 1.3783                 1.6402
 Frc consts  --      1.1488                 1.1467                 1.3684
 IR Inten    --     25.7186                10.5412                 6.7355

                     82                     83                     84
                      A                      A                      A
 Frequencies --   1196.2007              1206.7720              1208.7058
 Red. masses --      1.4195                 1.5162                 1.3295
 Frc consts  --      1.1967                 1.3009                 1.1444
 IR Inten    --      8.9959                20.1193                30.5880

                     85                     86                     87
                      A                      A                      A
 Frequencies --   1212.2761              1217.3042              1223.4498
 Red. masses --      1.7639                 1.5566                 1.5878
 Frc consts  --      1.5273                 1.3590                 1.4003
 IR Inten    --      4.2071                20.0268                17.7961

                     88                     89                     90
                      A                      A                      A
 Frequencies --   1227.4881              1234.6976              1241.2644
 Red. masses --      1.4318                 1.3970                 1.3969
 Frc consts  --      1.2711                 1.2548                 1.2681
 IR Inten    --     18.6386                10.7457                32.1510

                     91                     92                     93
                      A                      A                      A
 Frequencies --   1242.8746              1249.2242              1250.3209
 Red. masses --      1.5449                 1.4680                 1.5093
 Frc consts  --      1.4060                 1.3498                 1.3902
 IR Inten    --     45.3206                15.2771                13.4408

                     94                     95                     96
                      A                      A                      A
 Frequencies --   1255.3489              1258.7322              1266.3630
 Red. masses --      1.4775                 1.5930                 1.2605
 Frc consts  --      1.3718                 1.4871                 1.1910
 IR Inten    --     27.0420                24.2159                10.7623

                     97                     98                     99
                      A                      A                      A
 Frequencies --   1269.8533              1278.8364              1303.3267
 Red. masses --      1.5949                 1.6629                 1.4738
 Frc consts  --      1.5153                 1.6023                 1.4750
 IR Inten    --     25.8000                14.3305                 5.3136

                    100                    101                    102
                      A                      A                      A
 Frequencies --   1325.9705              1330.3599              1332.7952
 Red. masses --      1.6082                 1.5624                 1.4064
 Frc consts  --      1.6660                 1.6292                 1.4719
 IR Inten    --      5.6060                22.9484                19.1672

                    103                    104                    105
                      A                      A                      A
 Frequencies --   1338.8827              1343.8564              1344.8768
 Red. masses --      2.0079                 1.8422                 1.1968
 Frc consts  --      2.1207                 1.9601                 1.2754
 IR Inten    --     12.7801                15.3910                 4.6138

                    106                    107                    108
                      A                      A                      A
 Frequencies --   1350.7704              1372.7743              2437.3069
 Red. masses --      1.5309                 1.5989                 1.0577
 Frc consts  --      1.6458                 1.7753                 3.7021
 IR Inten    --      7.0190                24.1811               266.4015

                    109                    110                    111
                      A                      A                      A
 Frequencies --   2493.5659              2532.3470              2536.5479
 Red. masses --      1.0562                 1.0556                 1.0544
 Frc consts  --      3.8694                 3.9884                 3.9972
 IR Inten    --    342.8931               113.3139               345.3737

                    112                    113                    114
                      A                      A                      A
 Frequencies --   2539.0107              2545.2834              2549.3093
 Red. masses --      1.0546                 1.0531                 1.0546
 Frc consts  --      4.0057                 4.0195                 4.0383
 IR Inten    --    286.2896               274.4606               156.7507

                    115                    116                    117
                      A                      A                      A
 Frequencies --   2554.3568              2619.9617              2631.6720
 Red. masses --      1.0527                 1.0628                 1.0623
 Frc consts  --      4.0469                 4.2984                 4.3347
 IR Inten    --    160.1235                14.2498               253.2814

                    118                    119                    120
                      A                      A                      A
 Frequencies --   2643.8031              2655.9403              2658.9370
 Red. masses --      1.0869                 1.0634                 1.0842
 Frc consts  --      4.4760                 4.4197                 4.5160
 IR Inten    --     77.6658               135.3914                52.6251

                    121                    122                    123
                      A                      A                      A
 Frequencies --   2659.9646              2662.7686              2664.5838
 Red. masses --      1.0640                 1.0654                 1.0677
 Frc consts  --      4.4353                 4.4508                 4.4666
 IR Inten    --     88.2234                24.2133                63.3429

                    124                    125                    126
                      A                      A                      A
 Frequencies --   2669.2674              2674.5366              2675.8874
 Red. masses --      1.0675                 1.0659                 1.0679
 Frc consts  --      4.4811                 4.4923                 4.5053
 IR Inten    --     43.0341                59.0342                80.9088

                    127                    128                    129
                      A                      A                      A
 Frequencies --   2682.6163              2711.0882              2721.6340
 Red. masses --      1.0679                 1.0462                 1.0462
 Frc consts  --      4.5278                 4.5305                 4.5657
 IR Inten    --    119.6193                56.6966                51.5911

 - Thermochemistry -
 -------------------
 Temperature   298.150 Kelvin.  Pressure   1.00000 Atm.
 Atom     1 has atomic number  8 and mass  15.99491

 Molecular mass:   342.11621 amu.
 Principal axes and moments of inertia in atomic units:
                           1         2         3
     Eigenvalues --  3751.59992********************
           X            1.00000   0.00278   0.00003
           Y           -0.00278   0.99991  -0.01326
           Z           -0.00007   0.01326   0.99991
 This molecule is an asymmetric top.
 Rotational symmetry number  1.
 Warning -- assumption of classical behavior for rotation
           may cause significant error
 Rotational temperatures (Kelvin)      0.02309     0.00787     0.00711
 Rotational constants (GHZ):           0.48106     0.16395     0.14815
 Zero-point vibrational energy     850883.3 (Joules/Mol)
                                  203.36598 (Kcal/Mol)
 Warning -- explicit consideration of  44 degrees of freedom as
           vibrations may cause significant error
 Vibrational temperatures:     31.97    37.27    40.28    49.36    78.81
          (Kelvin)             84.31   102.54   122.58   136.36   185.44
                              192.69   258.55   266.23   302.78   311.65
                              342.96   356.72   365.83   384.00   391.59
                              403.80   411.04   441.39   450.47   475.99
                              490.53   500.97   517.35   543.03   552.68
                              567.13   571.02   581.45   590.08   619.86
                              624.77   651.27   673.71   705.06   756.81
                              769.26   814.52   850.01   875.69   923.35
                             1046.43  1058.04  1207.71  1257.91  1305.63
                             1322.42  1365.41  1427.27  1438.11  1454.53
                             1487.16  1509.22  1517.66  1531.53  1542.21
                             1552.81  1566.95  1574.64  1582.79  1597.43
                             1598.34  1610.45  1614.61  1617.40  1635.01
                             1652.44  1657.36  1658.59  1662.67  1667.68
                             1681.22  1686.25  1697.45  1706.67  1709.67
                             1712.10  1721.07  1736.28  1739.06  1744.19
                             1751.43  1760.27  1766.08  1776.45  1785.90
                             1788.22  1797.35  1798.93  1806.17  1811.03
                             1822.01  1827.04  1839.96  1875.20  1907.78
                             1914.09  1917.60  1926.35  1933.51  1934.98
                             1943.46  1975.12  3506.74  3587.69  3643.48
                             3649.53  3653.07  3662.10  3667.89  3675.15
                             3769.54  3786.39  3803.84  3821.31  3825.62
                             3827.10  3831.13  3833.74  3840.48  3848.06
                             3850.01  3859.69  3900.65  3915.82

 Zero-point correction=                           0.324084 (Hartree/Particle)
 Thermal correction to Energy=                    0.349311
 Thermal correction to Enthalpy=                  0.350256
 Thermal correction to Gibbs Free Energy=         0.268191
 Sum of electronic and zero-point Energies=             -0.464918
 Sum of electronic and thermal Energies=                -0.439691
 Sum of electronic and thermal Enthalpies=              -0.438746
 Sum of electronic and thermal Free Energies=           -0.520811

                     E (Thermal)             CV                S
                      KCal/Mol        Cal/Mol-Kelvin    Cal/Mol-Kelvin
 Total                  219.196             95.199            172.720
 Electronic               0.000              0.000              0.000
 Translational            0.889              2.981             43.384
 Rotational               0.889              2.981             34.575
 Vibrational            217.419             89.237             94.761
 Vibration     1          0.593              1.985              6.425
 Vibration     2          0.593              1.985              6.121
 Vibration     3          0.593              1.984              5.967
 Vibration     4          0.594              1.983              5.563
 Vibration     5          0.596              1.976              4.637
 Vibration     6          0.596              1.974              4.504
 Vibration     7          0.598              1.968              4.118
 Vibration     8          0.601              1.959              3.767
 Vibration     9          0.603              1.953              3.559
 Vibration    10          0.611              1.924              2.963
 Vibration    11          0.613              1.919              2.889
 Vibration    12          0.629              1.867              2.332
 Vibration    13          0.631              1.860              2.277
 Vibration    14          0.643              1.825              2.040
 Vibration    15          0.645              1.816              1.987
 Vibration    16          0.656              1.782              1.815
 Vibration    17          0.662              1.766              1.745
 Vibration    18          0.665              1.756              1.701
 Vibration    19          0.672              1.734              1.616
 Vibration    20          0.675              1.725              1.582
 Vibration    21          0.680              1.709              1.530
 Vibration    22          0.683              1.700              1.499
 Vibration    23          0.697              1.661              1.380
 Vibration    24          0.701              1.649              1.346
 Vibration    25          0.713              1.614              1.256
 Vibration    26          0.720              1.594              1.208
 Vibration    27          0.726              1.579              1.174
 Vibration    28          0.734              1.556              1.124
 Vibration    29          0.748              1.518              1.049
 Vibration    30          0.753              1.504              1.023
 Vibration    31          0.761              1.483              0.984
 Vibration    32          0.763              1.477              0.974
 Vibration    33          0.769              1.461              0.948
 Vibration    34          0.774              1.448              0.926
 Vibration    35          0.792              1.403              0.856
 Vibration    36          0.795              1.396              0.845
 Vibration    37          0.811              1.355              0.788
 Vibration    38          0.825              1.320              0.742
 Vibration    39          0.846              1.272              0.683
 Vibration    40          0.881              1.192              0.596
 Vibration    41          0.890              1.173              0.577
 Vibration    42          0.922              1.105              0.512
 Vibration    43          0.948              1.051              0.466
 Vibration    44          0.968              1.014              0.435

                           ! Non-Optimized Parameters !
 Normal termination of Gaussian 16 at Tue Jun 22 14:18:03 2021.
