 Gaussian 16, Revision B.01,
 Gaussian 16:  ES64L-G16RevB.01 20-Dec-2017

 --------------------------------------
 #P pm6 opt=loose freq int=(grid=99590)
 --------------------------------------

 ----------
 initial-04
 ----------
 Symbolic Z-matrix:
 Charge =  0 Multiplicity = 1

 SCF Done:  E(RPM6) = -0.662308572831     A.U. after   15 cycles
 SCF Done:  E(RPM6) = -0.702352107732     A.U. after   13 cycles
 SCF Done:  E(RPM6) = -0.734163080177     A.U. after   13 cycles
 SCF Done:  E(RPM6) = -0.744559057156     A.U. after   12 cycles
 SCF Done:  E(RPM6) = -0.746436932713     A.U. after   13 cycles
 SCF Done:  E(RPM6) = -0.749062352827     A.U. after   13 cycles
 SCF Done:  E(RPM6) = -0.747628771488     A.U. after   13 cycles
 SCF Done:  E(RPM6) = -0.754836310175     A.U. after   12 cycles
 SCF Done:  E(RPM6) = -0.757939549702     A.U. after   12 cycles
 SCF Done:  E(RPM6) = -0.759629917976     A.U. after   12 cycles
 SCF Done:  E(RPM6) = -0.787054655806     A.U. after   12 cycles
 SCF Done:  E(RPM6) = -0.787492617041     A.U. after   13 cycles
 SCF Done:  E(RPM6) = -0.788511701079     A.U. after   11 cycles
 SCF Done:  E(RPM6) = -0.789493171592     A.U. after   11 cycles
 SCF Done:  E(RPM6) = -0.789612592760     A.U. after   12 cycles
 SCF Done:  E(RPM6) = -0.789791962618     A.U. after   11 cycles
 SCF Done:  E(RPM6) = -0.789827184065     A.U. after   11 cycles
 SCF Done:  E(RPM6) = -0.789844650185     A.U. after    9 cycles
 SCF Done:  E(RPM6) = -0.789850920441     A.U. after    9 cycles
 Optimization completed.
    -- Stationary point found.
 Normal termination of Gaussian 16 at Tue Jun 22 14:18:34 2021.

 -------------------------------------------------------------
 #P Geom=AllCheck Guess=TCheck SCRF=Check GenChk RPM6/ZDO Freq
 -------------------------------------------------------------

 Structure from the checkpoint file:  "/scratch-data/gaussian/Gau-25241.chk"
 ----------
 initial-04
 ----------
 Charge =  0 Multiplicity = 1

                         Standard orientation:
 ---------------------------------------------------------------------
 Center     Atomic      Atomic             Coordinates (Angstroms)
 Number     Number       Type             X           Y           Z
 ---------------------------------------------------------------------
      1          8           0        2.056880   -0.288550    1.449220
      2          6           0        2.700531    0.021530    0.202678
      3          6           0        2.465552    1.511035   -0.140288
      4          8           0        2.753261    2.169979    1.101962
      5          6           0        1.005426    1.777091   -0.556999
      6          6           0        0.582600    0.805294   -1.683332
      7          8           0        0.781179   -0.555981   -1.269935
      8          6           0        2.127925   -0.918786   -0.876092
      9          6           0        1.962115   -2.368025   -0.380539
     10          8           0        2.540408   -3.258165   -1.333940
     11          8           0       -1.017960    1.429202    1.993126
     12          6           0       -1.855359    0.500047    1.281325
     13          6           0       -2.151363    1.214167   -0.052797
     14          6           0       -1.883710    0.402771   -1.330561
     15          6           0       -1.824551   -1.141925   -1.200991
     16          8           0       -1.779039   -1.644148    0.150323
     17          6           0       -1.083875   -0.819899    1.097274
     18          6           0       -1.043468   -1.659485    2.384306
     19          8           0       -0.144240   -1.019372    3.300432
     20          8           0       -3.021590   -1.699338   -1.691384
     21          8           0       -0.767705    0.914492   -2.076630
     22          8           0       -3.564373    1.476783   -0.136040
     23          8           0        1.042269    3.109965   -1.084006
     24          1           0        3.791491   -0.173558    0.350873
     25          1           0        3.174622    1.893475   -0.909801
     26          1           0        2.431428    3.104911    1.067230
     27          1           0        0.326670    1.745830    0.333954
     28          1           0        1.107313    1.007200   -2.647775
     29          1           0        2.767802   -0.883024   -1.790171
     30          1           0        2.542039   -2.559518    0.544748
     31          1           0        0.894367   -2.609763   -0.208178
     32          1           0        1.939745   -3.378720   -2.101496
     33          1           0       -2.795628    0.351788    1.860175
     34          1           0       -1.603153    2.188563   -0.086389
     35          1           0       -2.703473    0.649597   -2.076787
     36          1           0       -1.004577   -1.604086   -1.794860
     37          1           0       -0.042220   -0.618113    0.726606
     38          1           0       -2.006211   -1.678024    2.927486
     39          1           0       -0.724585   -2.696566    2.178109
     40          1           0        0.789049   -1.140122    2.990391
     41          1           0       -3.827969    2.145384    0.532953
     42          1           0       -0.655207    0.985463    2.812999
     43          1           0        0.155320    3.362820   -1.431087
     44          1           0       -3.749840   -1.616681   -1.027335
     45          1           0        2.149360    0.501326    2.059427
 ---------------------------------------------------------------------

 SCF Done:  E(RPM6) = -0.789850920451     A.U. after    2 cycles

 The electronic state is 1-A.
 Alpha  occ. eigenvalues --   -1.17638  -1.15731  -1.14226  -1.13608  -1.13352
 Alpha  occ. eigenvalues --   -1.11990  -1.11551  -1.10564  -1.09533  -1.09214
 Alpha  occ. eigenvalues --   -1.09060  -1.02299  -1.01407  -0.99518  -0.98543
 Alpha  occ. eigenvalues --   -0.93330  -0.90532  -0.88716  -0.86082  -0.83134
 Alpha  occ. eigenvalues --   -0.82545  -0.78578  -0.76217  -0.73166  -0.72037
 Alpha  occ. eigenvalues --   -0.70391  -0.69581  -0.68830  -0.66820  -0.66516
 Alpha  occ. eigenvalues --   -0.66105  -0.65317  -0.64607  -0.63526  -0.62830
 Alpha  occ. eigenvalues --   -0.61655  -0.60077  -0.59671  -0.58331  -0.57805
 Alpha  occ. eigenvalues --   -0.57191  -0.55765  -0.55150  -0.54394  -0.53800
 Alpha  occ. eigenvalues --   -0.53358  -0.52549  -0.52361  -0.51312  -0.50830
 Alpha  occ. eigenvalues --   -0.50273  -0.48787  -0.48434  -0.47670  -0.46746
 Alpha  occ. eigenvalues --   -0.46323  -0.45691  -0.44904  -0.43834  -0.42673
 Alpha  occ. eigenvalues --   -0.42468  -0.42181  -0.41245  -0.41017  -0.40593
 Alpha  occ. eigenvalues --   -0.40345  -0.39149  -0.37973
 Alpha virt. eigenvalues --    0.01332   0.02288   0.03524   0.04208   0.05193
 Alpha virt. eigenvalues --    0.06216   0.06573   0.06876   0.07061   0.07990
 Alpha virt. eigenvalues --    0.08327   0.08408   0.08449   0.08837   0.08977

 Mulliken charges:
               1
     1  O   -0.580766
     2  C    0.074509
     3  C    0.079776
     4  O   -0.559215
     5  C   -0.043698
     6  C    0.324889
     7  O   -0.522373
     8  C    0.075108
     9  C   -0.023336
    10  O   -0.532859
    11  O   -0.583075
    12  C    0.047052
    13  C    0.083290
    14  C    0.006611
    15  C    0.361015
    16  O   -0.505413
    17  C    0.035938
    18  C   -0.032939
    19  O   -0.553064
    20  O   -0.536219
    21  O   -0.448767
    22  O   -0.555345
    23  O   -0.548239
    24  H    0.152497
    25  H    0.151461
    26  H    0.342547
    27  H    0.190193
    28  H    0.149192
    29  H    0.146776
    30  H    0.170846
    31  H    0.154099
    32  H    0.314527
    33  H    0.147755
    34  H    0.148138
    35  H    0.208122
    36  H    0.170460
    37  H    0.178628
    38  H    0.159001
    39  H    0.144072
    40  H    0.325868
    41  H    0.322556
    42  H    0.345826
    43  H    0.328753
    44  H    0.335943
    45  H    0.349862
 Sum of Mulliken charges =   0.00000

 Dipole moment (field-independent basis, Debye):
    X=              0.8779    Y=              2.2158    Z=              0.3766  Tot=              2.4129
 N-N= 1.449159507100D+03 E-N=-2.500407300090D+03  KE=-3.044583598997D+02
  Exact polarizability: 134.155  -0.334 125.974  11.103   4.102 122.590
 Approx polarizability:  97.154   0.705  89.911  10.377   3.637  93.616
 Leave Link  601 at Tue Jun 22 14:18:35 2021, MaxMem=  2147483648 cpu:               0.2 elap:               0.0
 (Enter /home/matma/Programs/gaussian/G16_x86_SSE4/tar/g16/l701.exe)
 ... and contract with generalized density number  0.
 Compute integral second derivatives.
 Leave Link  701 at Tue Jun 22 14:18:35 2021, MaxMem=  2147483648 cpu:               0.6 elap:               0.1
 (Enter /home/matma/Programs/gaussian/G16_x86_SSE4/tar/g16/l702.exe)
 L702 exits ... SP integral derivatives will be done elsewhere.

                      1                      2                      3
                      A                      A                      A
 Frequencies --     36.0979                44.8179                50.7130
 Red. masses --      5.4109                 5.9711                 4.8234
 Frc consts  --      0.0042                 0.0071                 0.0073
 IR Inten    --      3.6545                 0.3604                 0.6965

                      4                      5                      6
                      A                      A                      A
 Frequencies --     58.1236                65.9022                74.9694
 Red. masses --      5.2154                 5.1831                 6.4612
 Frc consts  --      0.0104                 0.0133                 0.0214
 IR Inten    --      3.1065                 0.6461                 0.9084

                      7                      8                      9
                      A                      A                      A
 Frequencies --     83.7579                92.5987                98.9618
 Red. masses --      5.1475                 5.7977                 6.4301
 Frc consts  --      0.0213                 0.0293                 0.0371
 IR Inten    --      1.4755                 1.0043                 1.3012

                     10                     11                     12
                      A                      A                      A
 Frequencies --    108.3999               144.6484               160.7680
 Red. masses --      5.2903                 6.3950                 5.2631
 Frc consts  --      0.0366                 0.0788                 0.0801
 IR Inten    --      4.8658                 1.4919                 3.1218

                     13                     14                     15
                      A                      A                      A
 Frequencies --    190.0068               194.5320               207.4936
 Red. masses --      4.2259                 3.6674                 5.7614
 Frc consts  --      0.0899                 0.0818                 0.1461
 IR Inten    --      7.2851                 8.2444                 4.6366

                     16                     17                     18
                      A                      A                      A
 Frequencies --    233.2210               245.9068               254.2143
 Red. masses --      3.7674                 1.6300                 3.4784
 Frc consts  --      0.1207                 0.0581                 0.1324
 IR Inten    --      1.3651                96.9347                22.7078

                     19                     20                     21
                      A                      A                      A
 Frequencies --    260.0256               272.0667               277.0521
 Red. masses --      2.6256                 3.0938                 1.4505
 Frc consts  --      0.1046                 0.1349                 0.0656
 IR Inten    --     14.9049                14.0568                70.6874

                     22                     23                     24
                      A                      A                      A
 Frequencies --    287.9340               309.1899               316.8631
 Red. masses --      3.5291                 4.1505                 1.2135
 Frc consts  --      0.1724                 0.2338                 0.0718
 IR Inten    --     11.0596                 9.4063                87.8759

                     25                     26                     27
                      A                      A                      A
 Frequencies --    322.7973               329.2797               335.3968
 Red. masses --      6.2559                 1.5845                 2.1172
 Frc consts  --      0.3841                 0.1012                 0.1403
 IR Inten    --     23.5338                78.0513                44.1385

                     28                     29                     30
                      A                      A                      A
 Frequencies --    341.9496               351.1724               370.7174
 Red. masses --      1.7784                 2.4306                 1.6616
 Frc consts  --      0.1225                 0.1766                 0.1345
 IR Inten    --     63.6478                72.3784               164.4792

                     31                     32                     33
                      A                      A                      A
 Frequencies --    382.2539               395.1929               405.7747
 Red. masses --      3.6478                 2.9935                 1.3318
 Frc consts  --      0.3140                 0.2755                 0.1292
 IR Inten    --     54.3476                55.8579                67.9328

                     34                     35                     36
                      A                      A                      A
 Frequencies --    418.5445               421.4462               451.8692
 Red. masses --      3.9976                 4.4374                 3.4233
 Frc consts  --      0.4126                 0.4644                 0.4118
 IR Inten    --      9.5021                32.7463                16.6800

                     37                     38                     39
                      A                      A                      A
 Frequencies --    479.9516               492.3869               509.4741
 Red. masses --      3.5632                 4.3560                 4.8057
 Frc consts  --      0.4836                 0.6222                 0.7349
 IR Inten    --      2.8523                14.3444                20.4346

                     40                     41                     42
                      A                      A                      A
 Frequencies --    526.4651               532.0320               546.6829
 Red. masses --      1.6628                 3.6216                 2.9666
 Frc consts  --      0.2715                 0.6040                 0.5224
 IR Inten    --    120.5986                31.0324                35.1727

                     43                     44                     45
                      A                      A                      A
 Frequencies --    585.2031               628.8819               646.7448
 Red. masses --      4.1148                 5.4123                 4.6597
 Frc consts  --      0.8303                 1.2612                 1.1483
 IR Inten    --      9.8952                12.3480                12.5374

                     46                     47                     48
                      A                      A                      A
 Frequencies --    691.6115               741.6418               877.2600
 Red. masses --      5.0885                 5.8298                 1.7899
 Frc consts  --      1.4340                 1.8893                 0.8116
 IR Inten    --     15.1453                 1.4460                 1.4323

                     49                     50                     51
                      A                      A                      A
 Frequencies --    881.4887               906.6277               923.0096
 Red. masses --      1.6094                 2.9069                 3.4294
 Frc consts  --      0.7368                 1.4078                 1.7214
 IR Inten    --     23.2063                 2.3325                16.2436

                     52                     53                     54
                      A                      A                      A
 Frequencies --    974.1055               993.5070               994.4979
 Red. masses --      3.4866                 2.4303                 2.2277
 Frc consts  --      1.9492                 1.4134                 1.2981
 IR Inten    --     42.8864                10.7411                17.1315

                     55                     56                     57
                      A                      A                      A
 Frequencies --   1017.7315              1042.1843              1062.1591
 Red. masses --      1.6850                 2.0318                 2.0568
 Frc consts  --      1.0283                 1.3002                 1.3672
 IR Inten    --     42.6061                52.1595               104.8992

                     58                     59                     60
                      A                      A                      A
 Frequencies --   1063.1749              1071.7847              1073.1584
 Red. masses --      2.2181                 3.1859                 2.6101
 Frc consts  --      1.4772                 2.1562                 1.7711
 IR Inten    --     84.5814                27.2843                 4.6287

                     61                     62                     63
                      A                      A                      A
 Frequencies --   1079.2322              1083.8629              1086.6285
 Red. masses --      2.9421                 2.2503                 2.4451
 Frc consts  --      2.0190                 1.5575                 1.7010
 IR Inten    --     63.3901               216.1810                36.7502

                     64                     65                     66
                      A                      A                      A
 Frequencies --   1097.6660              1110.9289              1114.7289
 Red. masses --      2.8798                 2.6486                 2.4936
 Frc consts  --      2.0444                 1.9259                 1.8256
 IR Inten    --     27.6204                87.2181                30.1187

                     67                     68                     69
                      A                      A                      A
 Frequencies --   1118.9025              1123.5765              1124.2230
 Red. masses --      2.4774                 2.1932                 1.9448
 Frc consts  --      1.8274                 1.6313                 1.4482
 IR Inten    --     33.0147                42.5123                 6.7615

                     70                     71                     72
                      A                      A                      A
 Frequencies --   1139.5558              1146.7284              1153.4999
 Red. masses --      2.2879                 3.0424                 1.4930
 Frc consts  --      1.7505                 2.3571                 1.1705
 IR Inten    --     75.0171               207.4659                17.2558

                     73                     74                     75
                      A                      A                      A
 Frequencies --   1157.2700              1159.0162              1167.0016
 Red. masses --      1.4752                 1.4072                 1.8670
 Frc consts  --      1.1641                 1.1138                 1.4981
 IR Inten    --     16.2362                17.6252                74.6089

                     76                     77                     78
                      A                      A                      A
 Frequencies --   1171.6858              1176.3427              1182.6843
 Red. masses --      1.3725                 1.5508                 1.3527
 Frc consts  --      1.1102                 1.2644                 1.1148
 IR Inten    --     44.5933                37.0494                16.8536

                     79                     80                     81
                      A                      A                      A
 Frequencies --   1185.1213              1193.7194              1198.5848
 Red. masses --      1.4003                 1.5445                 1.4717
 Frc consts  --      1.1588                 1.2967                 1.2457
 IR Inten    --     12.3482                11.1834                42.5226

                     82                     83                     84
                      A                      A                      A
 Frequencies --   1201.1090              1205.0618              1210.9013
 Red. masses --      1.3354                 1.2693                 1.7126
 Frc consts  --      1.1351                 1.0860                 1.4795
 IR Inten    --     48.7444                 7.9228                16.1726

                     85                     86                     87
                      A                      A                      A
 Frequencies --   1212.8018              1219.8308              1227.3766
 Red. masses --      1.4859                 1.5924                 1.4530
 Frc consts  --      1.2877                 1.3961                 1.2897
 IR Inten    --      8.6196                17.4102                 2.0070

                     88                     89                     90
                      A                      A                      A
 Frequencies --   1231.3964              1234.0337              1236.6194
 Red. masses --      1.6296                 1.4957                 1.6222
 Frc consts  --      1.4559                 1.3420                 1.4616
 IR Inten    --      9.5479                61.9815                28.6122

                     91                     92                     93
                      A                      A                      A
 Frequencies --   1238.8512              1251.9549              1253.5173
 Red. masses --      1.9163                 1.5304                 1.5003
 Frc consts  --      1.7328                 1.4133                 1.3889
 IR Inten    --     12.6782                22.1813                29.6340

                     94                     95                     96
                      A                      A                      A
 Frequencies --   1265.3236              1269.1241              1274.2533
 Red. masses --      1.3625                 1.2309                 1.5308
 Frc consts  --      1.2853                 1.1681                 1.4644
 IR Inten    --     22.8422                10.9560                35.5702

                     97                     98                     99
                      A                      A                      A
 Frequencies --   1279.1052              1280.8242              1282.6352
 Red. masses --      1.3321                 1.5066                 1.6396
 Frc consts  --      1.2841                 1.4562                 1.5893
 IR Inten    --      3.9642                12.4541                 3.2771

                    100                    101                    102
                      A                      A                      A
 Frequencies --   1330.5424              1335.1581              1341.3307
 Red. masses --      1.6562                 1.3719                 1.2123
 Frc consts  --      1.7275                 1.4409                 1.2851
 IR Inten    --      2.9028                28.4106                 5.3649

                    103                    104                    105
                      A                      A                      A
 Frequencies --   1344.6183              1347.9015              1348.7730
 Red. masses --      1.8864                 1.7588                 1.2372
 Frc consts  --      2.0095                 1.8827                 1.3261
 IR Inten    --      5.8686                11.4089                11.3154

                    106                    107                    108
                      A                      A                      A
 Frequencies --   1360.2852              1392.5014              2486.5013
 Red. masses --      1.6066                 1.4933                 1.0558
 Frc consts  --      1.7515                 1.7060                 3.8460
 IR Inten    --     16.1547                52.5881               194.7022

                    109                    110                    111
                      A                      A                      A
 Frequencies --   2500.0495              2529.8188              2532.8525
 Red. masses --      1.0553                 1.0538                 1.0550
 Frc consts  --      3.8862                 3.9735                 3.9878
 IR Inten    --    400.6494               173.1530               166.8379

                    112                    113                    114
                      A                      A                      A
 Frequencies --   2536.9244              2541.7088              2549.4102
 Red. masses --      1.0552                 1.0549                 1.0514
 Frc consts  --      4.0014                 4.0154                 4.0262
 IR Inten    --    260.0447               313.0978               241.0795

                    115                    116                    117
                      A                      A                      A
 Frequencies --   2550.1794              2612.7004              2622.7239
 Red. masses --      1.0526                 1.0625                 1.0617
 Frc consts  --      4.0333                 4.2732                 4.3030
 IR Inten    --    198.5974                36.6955               129.5145

                    118                    119                    120
                      A                      A                      A
 Frequencies --   2636.2000              2649.1157              2652.6094
 Red. masses --      1.0621                 1.0876                 1.0677
 Frc consts  --      4.3489                 4.4972                 4.4264
 IR Inten    --    155.8706                92.8387                78.7294

                    121                    122                    123
                      A                      A                      A
 Frequencies --   2656.9548              2659.3190              2660.8488
 Red. masses --      1.0630                 1.0649                 1.0649
 Frc consts  --      4.4212                 4.4370                 4.4423
 IR Inten    --     31.8828                35.6357                49.2260

                    124                    125                    126
                      A                      A                      A
 Frequencies --   2664.8124              2665.8646              2674.2674
 Red. masses --      1.0875                 1.0647                 1.0699
 Frc consts  --      4.5501                 4.4583                 4.5084
 IR Inten    --     84.3699                24.8704               181.6818

                    127                    128                    129
                      A                      A                      A
 Frequencies --   2674.5654              2712.6195              2728.3540
 Red. masses --      1.0660                 1.0474                 1.0459
 Frc consts  --      4.4926                 4.5408                 4.5872
 IR Inten    --     59.0240                52.4701                47.8212

 - Thermochemistry -
 -------------------
 Temperature   298.150 Kelvin.  Pressure   1.00000 Atm.
 Atom     1 has atomic number  8 and mass  15.99491

 Molecular mass:   342.11621 amu.
 Principal axes and moments of inertia in atomic units:
                           1         2         3
     Eigenvalues --  5864.806147408.646068014.14375
           X            0.99985  -0.01103  -0.01328
           Y            0.01076   0.99973  -0.02053
           Z            0.01350   0.02038   0.99970
 This molecule is an asymmetric top.
 Rotational symmetry number  1.
 Warning -- assumption of classical behavior for rotation
           may cause significant error
 Rotational temperatures (Kelvin)      0.01477     0.01169     0.01081
 Rotational constants (GHZ):           0.30772     0.24360     0.22519
 Zero-point vibrational energy     852348.9 (Joules/Mol)
                                  203.71628 (Kcal/Mol)
 Warning -- explicit consideration of  43 degrees of freedom as
           vibrations may cause significant error
 Vibrational temperatures:     51.94    64.48    72.96    83.63    94.82
          (Kelvin)            107.86   120.51   133.23   142.38   155.96
                              208.12   231.31   273.38   279.89   298.54
                              335.55   353.81   365.76   374.12   391.44
                              398.62   414.27   444.86   455.90   464.43
                              473.76   482.56   491.99   505.26   533.38
                              549.98   568.59   583.82   602.19   606.37
                              650.14   690.54   708.43   733.02   757.47
                              765.48   786.55   841.98   904.82   930.52
                              995.07  1067.06  1262.18  1268.27  1304.44
                             1328.00  1401.52  1429.44  1430.86  1464.29
                             1499.47  1528.21  1529.67  1542.06  1544.04
                             1552.77  1559.44  1563.42  1579.30  1598.38
                             1603.85  1609.85  1616.58  1617.51  1639.57
                             1649.89  1659.63  1665.05  1667.57  1679.06
                             1685.79  1692.49  1701.62  1705.13  1717.50
                             1724.50  1728.13  1733.82  1742.22  1744.95
                             1755.06  1765.92  1771.70  1775.50  1779.22
                             1782.43  1801.28  1803.53  1820.52  1825.99
                             1833.37  1840.35  1842.82  1845.43  1914.35
                             1920.99  1929.88  1934.61  1939.33  1940.58
                             1957.15  2003.50  3577.52  3597.01  3639.85
                             3644.21  3650.07  3656.95  3668.03  3669.14
                             3759.09  3773.51  3792.90  3811.49  3816.51
                             3822.77  3826.17  3828.37  3834.07  3835.58
                             3847.67  3848.10  3902.85  3925.49

 Zero-point correction=                           0.324643 (Hartree/Particle)
 Thermal correction to Energy=                    0.349722
 Thermal correction to Enthalpy=                  0.350666
 Thermal correction to Gibbs Free Energy=         0.271083
 Sum of electronic and zero-point Energies=             -0.465208
 Sum of electronic and thermal Energies=                -0.440129
 Sum of electronic and thermal Enthalpies=              -0.439185
 Sum of electronic and thermal Free Energies=           -0.518768

                     E (Thermal)             CV                S
                      KCal/Mol        Cal/Mol-Kelvin    Cal/Mol-Kelvin
 Total                  219.454             95.093            167.496
 Electronic               0.000              0.000              0.000
 Translational            0.889              2.981             43.384
 Rotational               0.889              2.981             34.209
 Vibrational            217.676             89.131             89.903
 Vibration     1          0.594              1.982              5.462
 Vibration     2          0.595              1.979              5.034
 Vibration     3          0.595              1.977              4.789
 Vibration     4          0.596              1.974              4.520
 Vibration     5          0.597              1.971              4.272
 Vibration     6          0.599              1.966              4.018
 Vibration     7          0.601              1.960              3.801
 Vibration     8          0.602              1.954              3.604
 Vibration     9          0.604              1.950              3.475
 Vibration    10          0.606              1.943              3.297
 Vibration    11          0.616              1.908              2.741
 Vibration    12          0.622              1.890              2.541
 Vibration    13          0.633              1.854              2.228
 Vibration    14          0.635              1.847              2.184
 Vibration    15          0.641              1.829              2.066
 Vibration    16          0.654              1.790              1.854
 Vibration    17          0.660              1.770              1.760
 Vibration    18          0.665              1.756              1.701
 Vibration    19          0.668              1.746              1.662
 Vibration    20          0.675              1.725              1.583
 Vibration    21          0.678              1.716              1.552
 Vibration    22          0.685              1.696              1.486
 Vibration    23          0.699              1.656              1.367
 Vibration    24          0.704              1.641              1.326
 Vibration    25          0.708              1.630              1.296
 Vibration    26          0.712              1.617              1.264
 Vibration    27          0.717              1.605              1.234
 Vibration    28          0.721              1.592              1.203
 Vibration    29          0.728              1.573              1.161
 Vibration    30          0.743              1.532              1.077
 Vibration    31          0.752              1.508              1.030
 Vibration    32          0.762              1.480              0.980
 Vibration    33          0.771              1.458              0.942
 Vibration    34          0.781              1.430              0.897
 Vibration    35          0.784              1.424              0.887
 Vibration    36          0.811              1.357              0.790
 Vibration    37          0.836              1.295              0.710
 Vibration    38          0.848              1.267              0.677
 Vibration    39          0.865              1.229              0.635
 Vibration    40          0.881              1.191              0.595
 Vibration    41          0.887              1.179              0.583
 Vibration    42          0.902              1.147              0.551
 Vibration    43          0.942              1.063              0.476

                           ! Non-Optimized Parameters !
 Normal termination of Gaussian 16 at Tue Jun 22 14:18:35 2021.
