 Gaussian 16, Revision B.01,
 Gaussian 16:  ES64L-G16RevB.01 20-Dec-2017

 --------------------------------------
 #P pm6 opt=loose freq int=(grid=99590)
 --------------------------------------

 ------------
 offspring-10
 ------------
 Symbolic Z-matrix:
 Charge =  0 Multiplicity = 1

 SCF Done:  E(RPM6) = -0.795152530083     A.U. after   14 cycles
 SCF Done:  E(RPM6) = -0.795134897555     A.U. after   10 cycles
 SCF Done:  E(RPM6) = -0.795101500999     A.U. after   10 cycles
 SCF Done:  E(RPM6) = -0.795153830511     A.U. after   10 cycles
 SCF Done:  E(RPM6) = -0.795156455917     A.U. after    9 cycles
 Optimization completed.
    -- Stationary point found.
 Normal termination of Gaussian 16 at Tue Jun 22 14:22:02 2021.

 -------------------------------------------------------------
 #P Geom=AllCheck Guess=TCheck SCRF=Check GenChk RPM6/ZDO Freq
 -------------------------------------------------------------

 Structure from the checkpoint file:  "/scratch-data/gaussian/Gau-12629.chk"
 ------------
 offspring-10
 ------------
 Charge =  0 Multiplicity = 1

                         Standard orientation:
 ---------------------------------------------------------------------
 Center     Atomic      Atomic             Coordinates (Angstroms)
 Number     Number       Type             X           Y           Z
 ---------------------------------------------------------------------
      1          8           0       -3.130535    0.528270    1.937839
      2          6           0       -3.733581    0.459051    0.639125
      3          6           0       -3.566175   -0.970372    0.073724
      4          8           0       -3.972253   -1.810970    1.160635
      5          6           0       -2.083209   -1.233969   -0.266193
      6          6           0       -1.629247   -0.249975   -1.361137
      7          8           0       -2.440679    0.917229   -1.429975
      8          6           0       -3.006401    1.502874   -0.237244
      9          6           0       -1.905707    2.267466    0.511282
     10          8           0       -1.056182    2.926759   -0.445635
     11          8           0        3.993922    1.653123   -0.191406
     12          6           0        3.022992    0.686957    0.247122
     13          6           0        1.633371    1.110460   -0.277975
     14          6           0        0.598381   -0.036011   -0.205132
     15          6           0        1.174817   -1.451633   -0.478947
     16          8           0        2.522294   -1.660927   -0.049133
     17          6           0        3.489052   -0.636319   -0.381798
     18          6           0        4.795619   -1.179575    0.235848
     19          8           0        5.409752   -0.245311    1.116422
     20          8           0        0.465988   -2.388855    0.328857
     21          8           0       -0.279998    0.233738   -1.318566
     22          8           0        1.263868    2.145092    0.626488
     23          8           0       -2.056319   -2.552666   -0.815552
     24          1           0       -4.813841    0.707508    0.757057
     25          1           0       -4.223980   -1.170088   -0.801285
     26          1           0       -3.746112   -2.751327    0.948850
     27          1           0       -1.453611   -1.186417    0.655687
     28          1           0       -1.712656   -0.653283   -2.402019
     29          1           0       -3.734864    2.208801   -0.711071
     30          1           0       -2.309810    3.084737    1.135957
     31          1           0       -1.277647    1.604178    1.139915
     32          1           0       -0.943701    2.324440   -1.248713
     33          1           0        3.031206    0.647066    1.363540
     34          1           0        1.690589    1.511628   -1.317803
     35          1           0        0.045288   -0.002441    0.762242
     36          1           0        1.048258   -1.777374   -1.532974
     37          1           0        3.552456   -0.557261   -1.488922
     38          1           0        4.587035   -2.054217    0.889274
     39          1           0        5.515227   -1.466710   -0.551851
     40          1           0        5.548919    0.626015    0.655159
     41          1           0        0.523095    2.727985    0.232845
     42          1           0        3.755731    2.538760    0.182995
     43          1           0       -1.191712   -2.994348   -0.584902
     44          1           0        1.031223   -2.686599    1.088470
     45          1           0       -3.419446   -0.258626    2.475704
 ---------------------------------------------------------------------

 SCF Done:  E(RPM6) = -0.795156455912     A.U. after    2 cycles

 The electronic state is 1-A.
 Alpha  occ. eigenvalues --   -1.17728  -1.16442  -1.14675  -1.14118  -1.12773
 Alpha  occ. eigenvalues --   -1.11659  -1.10745  -1.10339  -1.09332  -1.09137
 Alpha  occ. eigenvalues --   -1.07249  -1.02930  -1.00703  -0.99574  -0.98626
 Alpha  occ. eigenvalues --   -0.92583  -0.91703  -0.88574  -0.85344  -0.83604
 Alpha  occ. eigenvalues --   -0.82402  -0.77280  -0.75526  -0.74074  -0.72185
 Alpha  occ. eigenvalues --   -0.70983  -0.70025  -0.68719  -0.68210  -0.66600
 Alpha  occ. eigenvalues --   -0.64982  -0.64832  -0.64300  -0.63170  -0.62303
 Alpha  occ. eigenvalues --   -0.61611  -0.60860  -0.60254  -0.59584  -0.58677
 Alpha  occ. eigenvalues --   -0.56633  -0.56297  -0.55500  -0.55135  -0.54117
 Alpha  occ. eigenvalues --   -0.53107  -0.51898  -0.51383  -0.50268  -0.50160
 Alpha  occ. eigenvalues --   -0.49532  -0.49034  -0.48737  -0.48292  -0.47222
 Alpha  occ. eigenvalues --   -0.47014  -0.45878  -0.45272  -0.43383  -0.42799
 Alpha  occ. eigenvalues --   -0.42475  -0.41621  -0.41483  -0.40758  -0.40448
 Alpha  occ. eigenvalues --   -0.39556  -0.39347  -0.38993
 Alpha virt. eigenvalues --    0.00914   0.02273   0.02971   0.04280   0.05156
 Alpha virt. eigenvalues --    0.05496   0.06111   0.07052   0.07247   0.07273
 Alpha virt. eigenvalues --    0.08054   0.08315   0.08591   0.08873   0.09499

 Mulliken charges:
               1
     1  O   -0.559926
     2  C    0.072410
     3  C    0.083923
     4  O   -0.559583
     5  C   -0.012850
     6  C    0.318412
     7  O   -0.469433
     8  C    0.066660
     9  C   -0.044259
    10  O   -0.558209
    11  O   -0.561399
    12  C    0.075542
    13  C    0.087669
    14  C   -0.021373
    15  C    0.345480
    16  O   -0.512644
    17  C    0.077507
    18  C   -0.018259
    19  O   -0.537858
    20  O   -0.595846
    21  O   -0.509078
    22  O   -0.593945
    23  O   -0.550631
    24  H    0.146583
    25  H    0.153760
    26  H    0.340083
    27  H    0.172886
    28  H    0.175962
    29  H    0.167289
    30  H    0.163003
    31  H    0.155382
    32  H    0.345127
    33  H    0.171791
    34  H    0.153249
    35  H    0.170459
    36  H    0.148149
    37  H    0.140618
    38  H    0.170446
    39  H    0.129969
    40  H    0.330760
    41  H    0.359249
    42  H    0.338417
    43  H    0.343596
    44  H    0.356096
    45  H    0.344811
 Sum of Mulliken charges =  -0.00000

 Dipole moment (field-independent basis, Debye):
    X=             -1.7336    Y=             -1.8480    Z=             -1.2163  Tot=              2.8107
 N-N= 1.399564655878D+03 E-N=-2.401135432613D+03  KE=-3.045691776097D+02
  Exact polarizability: 154.329   2.104 133.058   1.777  -0.185 103.695
 Approx polarizability:  99.459   2.324  98.923   1.701  -1.251  84.261
 Leave Link  601 at Tue Jun 22 14:22:02 2021, MaxMem=  2147483648 cpu:               0.2 elap:               0.0
 (Enter /home/matma/Programs/gaussian/G16_x86_SSE4/tar/g16/l701.exe)
 ... and contract with generalized density number  0.
 Compute integral second derivatives.
 Leave Link  701 at Tue Jun 22 14:22:03 2021, MaxMem=  2147483648 cpu:               0.6 elap:               0.1
 (Enter /home/matma/Programs/gaussian/G16_x86_SSE4/tar/g16/l702.exe)
 L702 exits ... SP integral derivatives will be done elsewhere.

                      1                      2                      3
                      A                      A                      A
 Frequencies --     23.1514                27.4074                44.4530
 Red. masses --      6.2897                 4.9158                 5.6262
 Frc consts  --      0.0020                 0.0022                 0.0066
 IR Inten    --      0.2117                 0.6231                 0.2411

                      4                      5                      6
                      A                      A                      A
 Frequencies --     54.4886                75.7920                86.9629
 Red. masses --      6.0605                 5.9323                 5.7214
 Frc consts  --      0.0106                 0.0201                 0.0255
 IR Inten    --      4.3249                 4.4808                 1.6511

                      7                      8                      9
                      A                      A                      A
 Frequencies --     92.1744               103.8800               106.2982
 Red. masses --      4.6760                 4.7069                 4.6131
 Frc consts  --      0.0234                 0.0299                 0.0307
 IR Inten    --      0.4851                 4.1468                 3.1757

                     10                     11                     12
                      A                      A                      A
 Frequencies --    133.5272               150.4969               164.6855
 Red. masses --      5.8941                 3.8117                 6.4250
 Frc consts  --      0.0619                 0.0509                 0.1027
 IR Inten    --      9.8115                 5.3062                 5.5257

                     13                     14                     15
                      A                      A                      A
 Frequencies --    185.6598               199.4151               212.0732
 Red. masses --      6.3328                 5.8341                 5.4777
 Frc consts  --      0.1286                 0.1367                 0.1452
 IR Inten    --      2.9872                20.5302                 0.3008

                     16                     17                     18
                      A                      A                      A
 Frequencies --    228.2610               242.6673               244.5141
 Red. masses --      5.8860                 1.7176                 3.0595
 Frc consts  --      0.1807                 0.0596                 0.1078
 IR Inten    --      5.1060                79.2534                22.6680

                     19                     20                     21
                      A                      A                      A
 Frequencies --    266.9946               283.7232               287.8171
 Red. masses --      5.4239                 5.4478                 2.7246
 Frc consts  --      0.2278                 0.2584                 0.1330
 IR Inten    --      8.2326                 4.3139                75.0633

                     22                     23                     24
                      A                      A                      A
 Frequencies --    302.9306               330.3567               335.4968
 Red. masses --      6.0324                 3.1675                 1.5188
 Frc consts  --      0.3262                 0.2037                 0.1007
 IR Inten    --     15.1026                33.1627               106.1898

                     25                     26                     27
                      A                      A                      A
 Frequencies --    359.3585               372.3163               373.8384
 Red. masses --      6.5851                 1.4257                 1.9840
 Frc consts  --      0.5010                 0.1164                 0.1634
 IR Inten    --      4.8125               140.6119                37.8382

                     28                     29                     30
                      A                      A                      A
 Frequencies --    380.5368               391.4298               396.1878
 Red. masses --      3.2691                 1.9676                 3.0924
 Frc consts  --      0.2789                 0.1776                 0.2860
 IR Inten    --     14.2117                85.2092                41.2144

                     31                     32                     33
                      A                      A                      A
 Frequencies --    401.9261               421.8752               435.0942
 Red. masses --      3.4079                 1.7874                 2.6273
 Frc consts  --      0.3244                 0.1874                 0.2930
 IR Inten    --     28.7184                42.6046                16.8755

                     34                     35                     36
                      A                      A                      A
 Frequencies --    461.6645               468.5688               491.2615
 Red. masses --      3.7084                 2.8752                 3.3571
 Frc consts  --      0.4657                 0.3719                 0.4773
 IR Inten    --      1.0225                11.8233                57.3752

                     37                     38                     39
                      A                      A                      A
 Frequencies --    506.3942               524.9941               529.8783
 Red. masses --      2.1851                 1.4938                 2.4922
 Frc consts  --      0.3301                 0.2426                 0.4123
 IR Inten    --    119.1659                92.8193                12.5737

                     40                     41                     42
                      A                      A                      A
 Frequencies --    541.6568               572.8524               583.1358
 Red. masses --      1.7238                 3.4452                 3.7237
 Frc consts  --      0.2980                 0.6661                 0.7460
 IR Inten    --     47.7433                26.8665                25.4459

                     43                     44                     45
                      A                      A                      A
 Frequencies --    611.3231               616.6650               625.1972
 Red. masses --      4.7058                 2.7920                 1.2851
 Frc consts  --      1.0362                 0.6256                 0.2960
 IR Inten    --     18.7252                 1.7717               150.0010

                     46                     47                     48
                      A                      A                      A
 Frequencies --    657.9990               736.9603               837.1126
 Red. masses --      5.0917                 3.8703                 2.7495
 Frc consts  --      1.2989                 1.2384                 1.1352
 IR Inten    --      7.5360                13.1355                34.9480

                     49                     50                     51
                      A                      A                      A
 Frequencies --    874.5745               936.3009               964.1897
 Red. masses --      1.8150                 2.2219                 3.9468
 Frc consts  --      0.8179                 1.1476                 2.1618
 IR Inten    --     14.2174                17.4090                14.9140

                     52                     53                     54
                      A                      A                      A
 Frequencies --    982.9178               987.8145              1005.5010
 Red. masses --      1.9478                 2.7881                 3.2974
 Frc consts  --      1.1087                 1.6029                 1.9642
 IR Inten    --     19.3002                19.6270                 4.7128

                     55                     56                     57
                      A                      A                      A
 Frequencies --   1008.3434              1035.0148              1048.1690
 Red. masses --      3.4965                 2.9982                 2.4582
 Frc consts  --      2.0946                 1.8924                 1.5912
 IR Inten    --    188.5682               114.5423               115.2891

                     58                     59                     60
                      A                      A                      A
 Frequencies --   1060.8480              1065.5723              1081.7246
 Red. masses --      2.6752                 2.1632                 1.8392
 Frc consts  --      1.7738                 1.4472                 1.2680
 IR Inten    --    146.0620               216.0926                20.4112

                     61                     62                     63
                      A                      A                      A
 Frequencies --   1085.7514              1091.3810              1097.4895
 Red. masses --      1.9964                 1.8273                 2.5648
 Frc consts  --      1.3866                 1.2824                 1.8201
 IR Inten    --     31.3453                39.1229                48.8101

                     64                     65                     66
                      A                      A                      A
 Frequencies --   1100.9523              1105.7206              1110.9298
 Red. masses --      2.5415                 1.8308                 2.1820
 Frc consts  --      1.8150                 1.3188                 1.5867
 IR Inten    --     85.9748               117.0960                 6.4329

                     67                     68                     69
                      A                      A                      A
 Frequencies --   1115.8064              1121.1517              1135.1014
 Red. masses --      2.3118                 2.5905                 2.1544
 Frc consts  --      1.6958                 1.9185                 1.6355
 IR Inten    --     23.7537                38.0906                48.0691

                     70                     71                     72
                      A                      A                      A
 Frequencies --   1137.6304              1141.5126              1145.1311
 Red. masses --      2.2570                 1.9806                 1.5962
 Frc consts  --      1.7210                 1.5206                 1.2332
 IR Inten    --     50.7908                22.6891                18.2968

                     73                     74                     75
                      A                      A                      A
 Frequencies --   1149.4399              1158.5175              1163.9163
 Red. masses --      1.7671                 1.4372                 1.7631
 Frc consts  --      1.3756                 1.1365                 1.4072
 IR Inten    --     24.9075                36.6512                21.6861

                     76                     77                     78
                      A                      A                      A
 Frequencies --   1167.5375              1175.2293              1179.0953
 Red. masses --      1.4672                 1.3779                 1.6850
 Frc consts  --      1.1784                 1.1213                 1.3802
 IR Inten    --      2.7072                17.3118                48.9976

                     79                     80                     81
                      A                      A                      A
 Frequencies --   1183.2824              1187.8745              1191.9985
 Red. masses --      1.5150                 1.6099                 1.5700
 Frc consts  --      1.2498                 1.3385                 1.3143
 IR Inten    --      7.8921                48.0905                 2.9050

                     82                     83                     84
                      A                      A                      A
 Frequencies --   1196.6197              1196.7448              1199.9472
 Red. masses --      1.2634                 1.2873                 1.6189
 Frc consts  --      1.0659                 1.0863                 1.3734
 IR Inten    --      6.9368                10.1996                20.6545

                     85                     86                     87
                      A                      A                      A
 Frequencies --   1205.9875              1208.1086              1215.7629
 Red. masses --      1.3528                 1.3550                 1.8514
 Frc consts  --      1.1592                 1.1652                 1.6123
 IR Inten    --     60.4396                16.3431                70.9825

                     88                     89                     90
                      A                      A                      A
 Frequencies --   1222.0863              1225.7776              1235.5541
 Red. masses --      1.4689                 1.5390                 1.7698
 Frc consts  --      1.2926                 1.3625                 1.5919
 IR Inten    --      7.9372                18.0989                 2.5125

                     91                     92                     93
                      A                      A                      A
 Frequencies --   1238.9883              1244.8620              1246.3223
 Red. masses --      1.6936                 1.5660                 1.5094
 Frc consts  --      1.5317                 1.4298                 1.3814
 IR Inten    --     12.6217                24.0794                26.4426

                     94                     95                     96
                      A                      A                      A
 Frequencies --   1248.9575              1256.4231              1262.6404
 Red. masses --      1.5501                 1.4196                 1.2428
 Frc consts  --      1.4246                 1.3204                 1.1674
 IR Inten    --     62.6371                 6.0717                12.6483

                     97                     98                     99
                      A                      A                      A
 Frequencies --   1263.1903              1276.4564              1280.0886
 Red. masses --      1.3008                 1.7018                 1.3620
 Frc consts  --      1.2229                 1.6337                 1.3150
 IR Inten    --     15.8946                 8.2230                 0.3492

                    100                    101                    102
                      A                      A                      A
 Frequencies --   1320.1094              1333.2469              1342.4321
 Red. masses --      1.6838                 1.6330                 1.7200
 Frc consts  --      1.7288                 1.7102                 1.8263
 IR Inten    --     17.8835                51.6557                31.9333

                    103                    104                    105
                      A                      A                      A
 Frequencies --   1357.1861              1358.3453              1368.9874
 Red. masses --      1.8086                 1.5924                 1.5824
 Frc consts  --      1.9628                 1.7311                 1.7473
 IR Inten    --     41.0470                34.5243                27.8358

                    106                    107                    108
                      A                      A                      A
 Frequencies --   1369.7135              1399.9842              2299.7012
 Red. masses --      1.2161                 1.2139                 1.0605
 Frc consts  --      1.3443                 1.4018                 3.3045
 IR Inten    --     13.9746                43.4175               788.5320

                    109                    110                    111
                      A                      A                      A
 Frequencies --   2486.4221              2490.6784              2506.2339
 Red. masses --      1.0543                 1.0558                 1.0541
 Frc consts  --      3.8403                 3.8589                 3.9011
 IR Inten    --    255.2889               355.8286               248.7172

                    112                    113                    114
                      A                      A                      A
 Frequencies --   2520.4234              2523.7325              2536.8027
 Red. masses --      1.0546                 1.0527                 1.0545
 Frc consts  --      3.9473                 3.9505                 3.9983
 IR Inten    --     95.9809               394.9631               391.9748

                    115                    116                    117
                      A                      A                      A
 Frequencies --   2542.5005              2635.1639              2640.3742
 Red. masses --      1.0546                 1.0630                 1.0781
 Frc consts  --      4.0168                 4.3492                 4.4284
 IR Inten    --    251.0895                27.8518                13.4483

                    118                    119                    120
                      A                      A                      A
 Frequencies --   2651.5686              2652.7949              2658.5124
 Red. masses --      1.0621                 1.0820                 1.0602
 Frc consts  --      4.3997                 4.4865                 4.4146
 IR Inten    --     82.3514                47.0236                38.6896

                    121                    122                    123
                      A                      A                      A
 Frequencies --   2661.8809              2663.1874              2666.8546
 Red. masses --      1.0663                 1.0669                 1.0661
 Frc consts  --      4.4514                 4.4585                 4.4672
 IR Inten    --     53.8703                66.1907                26.0775

                    124                    125                    126
                      A                      A                      A
 Frequencies --   2671.0420              2677.1325              2682.8195
 Red. masses --      1.0702                 1.0680                 1.0680
 Frc consts  --      4.4986                 4.5097                 4.5291
 IR Inten    --     39.0094                65.9494               188.5915

                    127                    128                    129
                      A                      A                      A
 Frequencies --   2684.0903              2715.4280              2721.1933
 Red. masses --      1.0734                 1.0448                 1.0489
 Frc consts  --      4.5561                 4.5388                 4.5764
 IR Inten    --    152.3596                45.7597                48.8134

 - Thermochemistry -
 -------------------
 Temperature   298.150 Kelvin.  Pressure   1.00000 Atm.
 Atom     1 has atomic number  8 and mass  15.99491

 Molecular mass:   342.11621 amu.
 Principal axes and moments of inertia in atomic units:
                           1         2         3
     Eigenvalues --  3882.95347********************
           X            0.99999  -0.00281  -0.00273
           Y            0.00282   0.99999   0.00282
           Z            0.00272  -0.00283   0.99999
 This molecule is an asymmetric top.
 Rotational symmetry number  1.
 Warning -- assumption of classical behavior for rotation
           may cause significant error
 Rotational temperatures (Kelvin)      0.02231     0.00792     0.00667
 Rotational constants (GHZ):           0.46479     0.16512     0.13891
 Zero-point vibrational energy     854378.5 (Joules/Mol)
                                  204.20137 (Kcal/Mol)
 Warning -- explicit consideration of  44 degrees of freedom as
           vibrations may cause significant error
 Vibrational temperatures:     33.31    39.43    63.96    78.40   109.05
          (Kelvin)            125.12   132.62   149.46   152.94   192.12
                              216.53   236.95   267.12   286.91   305.13
                              328.42   349.14   351.80   384.15   408.21
                              414.10   435.85   475.31   482.71   517.04
                              535.68   537.87   547.51   563.18   570.03
                              578.28   606.98   626.00   664.23   674.17
                              706.82   728.59   755.35   762.38   779.32
                              824.21   839.00   879.56   887.24   899.52
                              946.71  1060.32  1204.42  1258.32  1347.13
                             1387.25  1414.20  1421.24  1446.69  1450.78
                             1489.16  1508.08  1526.32  1533.12  1556.36
                             1562.15  1570.25  1579.04  1584.02  1590.89
                             1598.38  1605.40  1613.09  1633.16  1636.80
                             1642.38  1647.59  1653.79  1666.85  1674.62
                             1679.83  1690.89  1696.46  1702.48  1709.09
                             1715.02  1721.67  1721.85  1726.46  1735.15
                             1738.20  1749.21  1758.31  1763.62  1777.69
                             1782.63  1791.08  1793.18  1796.97  1807.71
                             1816.66  1817.45  1836.54  1841.76  1899.34
                             1918.24  1931.46  1952.69  1954.36  1969.67
                             1970.71  2014.26  3308.76  3577.41  3583.53
                             3605.91  3626.33  3631.09  3649.89  3658.09
                             3791.41  3798.91  3815.02  3816.78  3825.01
                             3829.85  3831.73  3837.01  3843.03  3851.80
                             3859.98  3861.81  3906.90  3915.19

 Zero-point correction=                           0.325416 (Hartree/Particle)
 Thermal correction to Energy=                    0.349823
 Thermal correction to Enthalpy=                  0.350768
 Thermal correction to Gibbs Free Energy=         0.271781
 Sum of electronic and zero-point Energies=             -0.469741
 Sum of electronic and thermal Energies=                -0.445333
 Sum of electronic and thermal Enthalpies=              -0.444389
 Sum of electronic and thermal Free Energies=           -0.523376

                     E (Thermal)             CV                S
                      KCal/Mol        Cal/Mol-Kelvin    Cal/Mol-Kelvin
 Total                  219.518             93.784            166.242
 Electronic               0.000              0.000              0.000
 Translational            0.889              2.981             43.384
 Rotational               0.889              2.981             34.666
 Vibrational            217.740             87.822             88.192
 Vibration     1          0.593              1.985              6.344
 Vibration     2          0.593              1.984              6.009
 Vibration     3          0.595              1.980              5.050
 Vibration     4          0.596              1.976              4.647
 Vibration     5          0.599              1.965              3.997
 Vibration     6          0.601              1.958              3.727
 Vibration     7          0.602              1.955              3.613
 Vibration     8          0.605              1.946              3.380
 Vibration     9          0.605              1.944              3.335
 Vibration    10          0.613              1.920              2.895
 Vibration    11          0.618              1.902              2.666
 Vibration    12          0.623              1.886              2.495
 Vibration    13          0.632              1.859              2.271
 Vibration    14          0.638              1.841              2.138
 Vibration    15          0.643              1.822              2.026
 Vibration    16          0.651              1.798              1.893
 Vibration    17          0.659              1.775              1.783
 Vibration    18          0.660              1.772              1.770
 Vibration    19          0.672              1.734              1.616
 Vibration    20          0.682              1.704              1.511
 Vibration    21          0.685              1.696              1.487
 Vibration    22          0.694              1.668              1.401
 Vibration    23          0.713              1.615              1.258
 Vibration    24          0.717              1.605              1.233
 Vibration    25          0.734              1.556              1.125
 Vibration    26          0.744              1.529              1.070
 Vibration    27          0.745              1.526              1.064
 Vibration    28          0.750              1.512              1.037
 Vibration    29          0.759              1.488              0.995
 Vibration    30          0.763              1.478              0.977
 Vibration    31          0.768              1.466              0.956
 Vibration    32          0.784              1.423              0.886
 Vibration    33          0.796              1.394              0.842
 Vibration    34          0.819              1.335              0.761
 Vibration    35          0.826              1.320              0.742
 Vibration    36          0.847              1.269              0.680
 Vibration    37          0.862              1.236              0.642
 Vibration    38          0.880              1.195              0.598
 Vibration    39          0.885              1.184              0.587
 Vibration    40          0.897              1.158              0.562
 Vibration    41          0.929              1.090              0.499
 Vibration    42          0.940              1.068              0.480
 Vibration    43          0.970              1.008              0.431
 Vibration    44          0.976              0.997              0.422

 Optimization completed.
    -- Stationary point found.
 Normal termination of Gaussian 16 at Tue Jun 22 14:22:03 2021.
