 Gaussian 16, Revision B.01,
 Gaussian 16:  ES64L-G16RevB.01 20-Dec-2017

 --------------------------------------
 #P pm6 opt=loose freq int=(grid=99590)
 --------------------------------------

 ------------
 offspring-07
 ------------
 Symbolic Z-matrix:
 Charge =  0 Multiplicity = 1

 SCF Done:  E(RPM6) = -0.795149128025     A.U. after   14 cycles
 SCF Done:  E(RPM6) = -0.795135277532     A.U. after   10 cycles
 SCF Done:  E(RPM6) = -0.795069703954     A.U. after   11 cycles
 SCF Done:  E(RPM6) = -0.795150587273     A.U. after   10 cycles
 SCF Done:  E(RPM6) = -0.795143560672     A.U. after   10 cycles
 SCF Done:  E(RPM6) = -0.795150663067     A.U. after    9 cycles
 SCF Done:  E(RPM6) = -0.795156192417     A.U. after    9 cycles
 Optimization completed.
    -- Stationary point found.
 Normal termination of Gaussian 16 at Tue Jun 22 14:21:53 2021.

 -------------------------------------------------------------
 #P Geom=AllCheck Guess=TCheck SCRF=Check GenChk RPM6/ZDO Freq
 -------------------------------------------------------------

 Structure from the checkpoint file:  "/scratch-data/gaussian/Gau-9480.chk"
 ------------
 offspring-07
 ------------
 Charge =  0 Multiplicity = 1

                         Standard orientation:
 ---------------------------------------------------------------------
 Center     Atomic      Atomic             Coordinates (Angstroms)
 Number     Number       Type             X           Y           Z
 ---------------------------------------------------------------------
      1          8           0       -3.134778    0.528712    1.936724
      2          6           0       -3.735142    0.458074    0.636825
      3          6           0       -3.566307   -0.971771    0.073151
      4          8           0       -3.973088   -1.811660    1.160430
      5          6           0       -2.082986   -1.234951   -0.265257
      6          6           0       -1.628988   -0.251538   -1.360873
      7          8           0       -2.440748    0.915387   -1.431261
      8          6           0       -3.007322    1.501758   -0.239155
      9          6           0       -1.907391    2.266577    0.510142
     10          8           0       -1.057907    2.926671   -0.446123
     11          8           0        3.993779    1.656124   -0.182207
     12          6           0        3.022444    0.686912    0.248300
     13          6           0        1.633439    1.111376   -0.278253
     14          6           0        0.599209   -0.035404   -0.205133
     15          6           0        1.175489   -1.450995   -0.478189
     16          8           0        2.525611   -1.661220   -0.057654
     17          6           0        3.490115   -0.633211   -0.386285
     18          6           0        4.798052   -1.176979    0.227685
     19          8           0        5.405545   -0.250059    1.120552
     20          8           0        0.471094   -2.384847    0.338290
     21          8           0       -0.279949    0.233809   -1.317878
     22          8           0        1.264113    2.146681    0.625389
     23          8           0       -2.054503   -2.554370   -0.813170
     24          1           0       -4.815675    0.705815    0.752460
     25          1           0       -4.223037   -1.172496   -0.802328
     26          1           0       -3.745448   -2.751929    0.950083
     27          1           0       -1.454235   -1.185528    0.657065
     28          1           0       -1.711190   -0.655965   -2.401543
     29          1           0       -3.735314    2.207385   -0.713805
     30          1           0       -2.312237    3.083485    1.134871
     31          1           0       -1.279519    1.603255    1.138854
     32          1           0       -0.944190    2.324621   -1.249284
     33          1           0        3.028250    0.641185    1.364643
     34          1           0        1.691421    1.511736   -1.318233
     35          1           0        0.046504   -0.002180    0.762776
     36          1           0        1.041870   -1.780273   -1.530400
     37          1           0        3.552572   -0.550211   -1.493368
     38          1           0        4.592426   -2.060303    0.870378
     39          1           0        5.520792   -1.451002   -0.562024
     40          1           0        5.546274    0.625452    0.667791
     41          1           0        0.522768    2.728301    0.231050
     42          1           0        3.750378    2.540838    0.191563
     43          1           0       -1.191456   -2.996759   -0.577283
     44          1           0        1.044615   -2.687698    1.089479
     45          1           0       -3.422589   -0.258639    2.474767
 ---------------------------------------------------------------------

 SCF Done:  E(RPM6) = -0.795156192424     A.U. after    2 cycles

 The electronic state is 1-A.
 Alpha  occ. eigenvalues --   -1.17720  -1.16431  -1.14660  -1.14110  -1.12766
 Alpha  occ. eigenvalues --   -1.11662  -1.10728  -1.10327  -1.09331  -1.09132
 Alpha  occ. eigenvalues --   -1.07252  -1.02933  -1.00708  -0.99577  -0.98629
 Alpha  occ. eigenvalues --   -0.92587  -0.91704  -0.88566  -0.85338  -0.83606
 Alpha  occ. eigenvalues --   -0.82394  -0.77264  -0.75530  -0.74066  -0.72172
 Alpha  occ. eigenvalues --   -0.70978  -0.70004  -0.68715  -0.68210  -0.66612
 Alpha  occ. eigenvalues --   -0.64982  -0.64830  -0.64292  -0.63169  -0.62299
 Alpha  occ. eigenvalues --   -0.61618  -0.60852  -0.60252  -0.59579  -0.58674
 Alpha  occ. eigenvalues --   -0.56624  -0.56308  -0.55503  -0.55149  -0.54120
 Alpha  occ. eigenvalues --   -0.53109  -0.51889  -0.51380  -0.50269  -0.50156
 Alpha  occ. eigenvalues --   -0.49537  -0.49031  -0.48748  -0.48286  -0.47222
 Alpha  occ. eigenvalues --   -0.47012  -0.45860  -0.45252  -0.43382  -0.42808
 Alpha  occ. eigenvalues --   -0.42472  -0.41609  -0.41482  -0.40765  -0.40450
 Alpha  occ. eigenvalues --   -0.39556  -0.39351  -0.38996
 Alpha virt. eigenvalues --    0.00915   0.02271   0.02973   0.04289   0.05153
 Alpha virt. eigenvalues --    0.05488   0.06109   0.07054   0.07243   0.07271
 Alpha virt. eigenvalues --    0.08052   0.08312   0.08587   0.08877   0.09499

 Mulliken charges:
               1
     1  O   -0.560053
     2  C    0.072530
     3  C    0.083798
     4  O   -0.559486
     5  C   -0.013093
     6  C    0.318592
     7  O   -0.469285
     8  C    0.066620
     9  C   -0.044121
    10  O   -0.558227
    11  O   -0.561383
    12  C    0.075637
    13  C    0.087349
    14  C   -0.021086
    15  C    0.345497
    16  O   -0.512611
    17  C    0.077509
    18  C   -0.018311
    19  O   -0.537743
    20  O   -0.596625
    21  O   -0.509359
    22  O   -0.593627
    23  O   -0.550436
    24  H    0.146550
    25  H    0.153746
    26  H    0.340036
    27  H    0.173064
    28  H    0.175949
    29  H    0.167297
    30  H    0.163062
    31  H    0.155292
    32  H    0.345099
    33  H    0.171747
    34  H    0.153186
    35  H    0.170653
    36  H    0.148059
    37  H    0.140607
    38  H    0.170503
    39  H    0.129952
    40  H    0.330728
    41  H    0.359197
    42  H    0.338594
    43  H    0.343531
    44  H    0.356138
    45  H    0.344923
 Sum of Mulliken charges =  -0.00000

 Dipole moment (field-independent basis, Debye):
    X=             -1.7240    Y=             -1.8488    Z=             -1.2305  Tot=              2.8115
 N-N= 1.399464933699D+03 E-N=-2.400939827956D+03  KE=-3.045686451125D+02
  Exact polarizability: 154.313   2.028 133.065   1.759  -0.180 103.688
 Approx polarizability:  99.443   2.250  98.933   1.693  -1.236  84.249
 Leave Link  601 at Tue Jun 22 14:21:53 2021, MaxMem=  2147483648 cpu:               0.2 elap:               0.0
 (Enter /home/matma/Programs/gaussian/G16_x86_SSE4/tar/g16/l701.exe)
 ... and contract with generalized density number  0.
 Compute integral second derivatives.
 Leave Link  701 at Tue Jun 22 14:21:54 2021, MaxMem=  2147483648 cpu:               0.6 elap:               0.1
 (Enter /home/matma/Programs/gaussian/G16_x86_SSE4/tar/g16/l702.exe)
 L702 exits ... SP integral derivatives will be done elsewhere.

                      1                      2                      3
                      A                      A                      A
 Frequencies --     23.3857                27.7659                44.7789
 Red. masses --      6.2928                 4.9825                 5.6563
 Frc consts  --      0.0020                 0.0023                 0.0067
 IR Inten    --      0.1723                 0.6796                 0.2451

                      4                      5                      6
                      A                      A                      A
 Frequencies --     54.3759                75.9569                86.8978
 Red. masses --      5.9983                 5.9450                 5.6174
 Frc consts  --      0.0104                 0.0202                 0.0250
 IR Inten    --      4.4076                 4.4036                 1.6113

                      7                      8                      9
                      A                      A                      A
 Frequencies --     92.0094               103.2466               106.2384
 Red. masses --      4.6548                 4.7831                 4.6280
 Frc consts  --      0.0232                 0.0300                 0.0308
 IR Inten    --      0.4892                 4.1564                 3.0442

                     10                     11                     12
                      A                      A                      A
 Frequencies --    132.4570               150.0955               164.6051
 Red. masses --      5.8709                 3.7955                 6.4123
 Frc consts  --      0.0607                 0.0504                 0.1024
 IR Inten    --      9.6689                 5.5222                 5.2504

                     13                     14                     15
                      A                      A                      A
 Frequencies --    185.5039               199.1357               211.8837
 Red. masses --      6.3208                 5.8219                 5.4349
 Frc consts  --      0.1282                 0.1360                 0.1438
 IR Inten    --      2.9075                20.4466                 0.3199

                     16                     17                     18
                      A                      A                      A
 Frequencies --    228.1439               241.6556               244.2125
 Red. masses --      5.8588                 1.4933                 4.0960
 Frc consts  --      0.1797                 0.0514                 0.1439
 IR Inten    --      5.0051                92.3897                10.2273

                     19                     20                     21
                      A                      A                      A
 Frequencies --    266.7259               283.5643               287.8113
 Red. masses --      5.4151                 5.3772                 2.8267
 Frc consts  --      0.2270                 0.2547                 0.1380
 IR Inten    --      8.1367                 4.1078                72.3830

                     22                     23                     24
                      A                      A                      A
 Frequencies --    302.9787               330.3833               335.3494
 Red. masses --      6.0268                 3.0841                 1.5401
 Frc consts  --      0.3260                 0.1983                 0.1020
 IR Inten    --     14.4070                34.4088               105.8029

                     25                     26                     27
                      A                      A                      A
 Frequencies --    359.3343               372.8895               374.4355
 Red. masses --      6.5906                 1.4233                 2.0894
 Frc consts  --      0.5014                 0.1166                 0.1726
 IR Inten    --      4.8565               128.4148                47.2851

                     28                     29                     30
                      A                      A                      A
 Frequencies --    380.4581               391.7126               396.3837
 Red. masses --      3.3083                 1.9410                 3.0063
 Frc consts  --      0.2821                 0.1755                 0.2783
 IR Inten    --     12.2421                86.6374                42.7846

                     31                     32                     33
                      A                      A                      A
 Frequencies --    402.0998               422.7149               435.6367
 Red. masses --      3.3461                 1.8605                 2.4970
 Frc consts  --      0.3188                 0.1959                 0.2792
 IR Inten    --     30.8617                40.1564                18.5815

                     34                     35                     36
                      A                      A                      A
 Frequencies --    461.8222               468.5518               491.2778
 Red. masses --      3.6984                 2.8000                 3.3423
 Frc consts  --      0.4647                 0.3622                 0.4753
 IR Inten    --      1.0673                12.3849                58.0502

                     37                     38                     39
                      A                      A                      A
 Frequencies --    506.6138               525.4157               530.2343
 Red. masses --      2.2070                 1.4976                 2.4674
 Frc consts  --      0.3337                 0.2436                 0.4087
 IR Inten    --    117.0273                94.7052                13.5471

                     40                     41                     42
                      A                      A                      A
 Frequencies --    541.7585               573.0967               583.2006
 Red. masses --      1.7178                 3.4456                 3.7126
 Frc consts  --      0.2971                 0.6668                 0.7440
 IR Inten    --     47.6480                27.1385                24.5449

                     43                     44                     45
                      A                      A                      A
 Frequencies --    611.4804               616.6304               624.5959
 Red. masses --      4.6981                 2.6104                 1.3293
 Frc consts  --      1.0350                 0.5848                 0.3055
 IR Inten    --     19.3786                 2.0158               149.6515

                     46                     47                     48
                      A                      A                      A
 Frequencies --    657.9206               736.9508               837.0582
 Red. masses --      5.0869                 3.8699                 2.7503
 Frc consts  --      1.2973                 1.2383                 1.1354
 IR Inten    --      7.6137                13.0458                34.8906

                     49                     50                     51
                      A                      A                      A
 Frequencies --    874.3289               936.2091               964.0045
 Red. masses --      1.8186                 2.2223                 3.9551
 Frc consts  --      0.8191                 1.1476                 2.1655
 IR Inten    --     14.0172                17.4091                14.3724

                     52                     53                     54
                      A                      A                      A
 Frequencies --    982.8465               987.5107              1005.3966
 Red. masses --      1.9598                 2.7654                 3.3204
 Frc consts  --      1.1154                 1.5889                 1.9775
 IR Inten    --     19.8800                19.0748                 5.7834

                     55                     56                     57
                      A                      A                      A
 Frequencies --   1007.8278              1034.7789              1048.1494
 Red. masses --      3.4917                 2.9999                 2.4605
 Frc consts  --      2.0896                 1.8925                 1.5926
 IR Inten    --    191.2198               114.6342               114.0416

                     58                     59                     60
                      A                      A                      A
 Frequencies --   1060.1482              1065.5521              1081.7477
 Red. masses --      2.6892                 2.1504                 1.8341
 Frc consts  --      1.7808                 1.4385                 1.2645
 IR Inten    --    152.0852               207.4332                21.0956

                     61                     62                     63
                      A                      A                      A
 Frequencies --   1085.5657              1091.3110              1097.3170
 Red. masses --      1.9949                 1.8189                 2.5632
 Frc consts  --      1.3851                 1.2763                 1.8184
 IR Inten    --     30.5831                41.9937                50.5409

                     64                     65                     66
                      A                      A                      A
 Frequencies --   1100.7414              1105.7011              1111.0195
 Red. masses --      2.5401                 1.8313                 2.1809
 Frc consts  --      1.8133                 1.3191                 1.5861
 IR Inten    --     84.8510               116.2901                 6.8538

                     67                     68                     69
                      A                      A                      A
 Frequencies --   1115.8397              1121.1594              1135.0311
 Red. masses --      2.3214                 2.5932                 2.1711
 Frc consts  --      1.7029                 1.9205                 1.6480
 IR Inten    --     23.3079                36.0677                50.6556

                     70                     71                     72
                      A                      A                      A
 Frequencies --   1137.5603              1141.5382              1145.0413
 Red. masses --      2.2166                 1.9567                 1.6312
 Frc consts  --      1.6900                 1.5023                 1.2601
 IR Inten    --     47.8377                23.5956                19.8448

                     73                     74                     75
                      A                      A                      A
 Frequencies --   1149.5713              1158.7573              1163.9942
 Red. masses --      1.7458                 1.4403                 1.7522
 Frc consts  --      1.3593                 1.1394                 1.3987
 IR Inten    --     22.8619                34.3680                23.9433

                     76                     77                     78
                      A                      A                      A
 Frequencies --   1167.6303              1175.3220              1179.2693
 Red. masses --      1.4732                 1.3812                 1.7161
 Frc consts  --      1.1833                 1.1242                 1.4061
 IR Inten    --      2.6862                17.6365                49.0138

                     79                     80                     81
                      A                      A                      A
 Frequencies --   1183.4630              1187.8490              1191.9472
 Red. masses --      1.4931                 1.5994                 1.5808
 Frc consts  --      1.2321                 1.3297                 1.3232
 IR Inten    --      7.2572                46.7425                 2.9723

                     82                     83                     84
                      A                      A                      A
 Frequencies --   1196.5549              1197.0013              1199.8937
 Red. masses --      1.2945                 1.2551                 1.6185
 Frc consts  --      1.0920                 1.0595                 1.3729
 IR Inten    --      4.3050                12.4727                21.5601

                     85                     86                     87
                      A                      A                      A
 Frequencies --   1205.8788              1207.8804              1215.8309
 Red. masses --      1.3516                 1.3531                 1.8357
 Frc consts  --      1.1580                 1.1631                 1.5988
 IR Inten    --     59.5298                15.8083                72.2164

                     88                     89                     90
                      A                      A                      A
 Frequencies --   1222.2613              1225.6710              1235.5088
 Red. masses --      1.4807                 1.5319                 1.7694
 Frc consts  --      1.3033                 1.3559                 1.5914
 IR Inten    --     10.2205                16.6405                 2.6593

                     91                     92                     93
                      A                      A                      A
 Frequencies --   1239.0760              1244.8208              1246.4114
 Red. masses --      1.6853                 1.5643                 1.5252
 Frc consts  --      1.5245                 1.4282                 1.3961
 IR Inten    --     11.7764                26.9734                23.9953

                     94                     95                     96
                      A                      A                      A
 Frequencies --   1248.9837              1256.3398              1262.6213
 Red. masses --      1.5535                 1.4241                 1.2406
 Frc consts  --      1.4278                 1.3244                 1.1653
 IR Inten    --     61.8182                 6.2011                12.8033

                     97                     98                     99
                      A                      A                      A
 Frequencies --   1263.1571              1276.3437              1280.4270
 Red. masses --      1.2968                 1.7005                 1.3607
 Frc consts  --      1.2191                 1.6321                 1.3144
 IR Inten    --     15.7979                 8.1159                 0.3326

                    100                    101                    102
                      A                      A                      A
 Frequencies --   1320.2716              1333.4157              1342.4597
 Red. masses --      1.6811                 1.6380                 1.7184
 Frc consts  --      1.7265                 1.7160                 1.8246
 IR Inten    --     17.7673                52.1088                33.1891

                    103                    104                    105
                      A                      A                      A
 Frequencies --   1357.1747              1358.0112              1368.9091
 Red. masses --      1.6733                 1.7171                 1.5829
 Frc consts  --      1.8159                 1.8657                 1.7476
 IR Inten    --     63.9486                11.7682                27.3605

                    106                    107                    108
                      A                      A                      A
 Frequencies --   1369.6406              1399.8240              2300.3836
 Red. masses --      1.2173                 1.2141                 1.0605
 Frc consts  --      1.3454                 1.4017                 3.3064
 IR Inten    --     13.6275                43.3774               787.5617

                    109                    110                    111
                      A                      A                      A
 Frequencies --   2486.4496              2490.9376              2506.6898
 Red. masses --      1.0543                 1.0558                 1.0541
 Frc consts  --      3.8404                 3.8598                 3.9025
 IR Inten    --    256.8769               353.4528               248.2356

                    112                    113                    114
                      A                      A                      A
 Frequencies --   2519.8320              2523.6097              2536.8319
 Red. masses --      1.0547                 1.0527                 1.0545
 Frc consts  --      3.9458                 3.9499                 3.9984
 IR Inten    --    117.0679               377.3350               389.7818

                    115                    116                    117
                      A                      A                      A
 Frequencies --   2542.1854              2635.0174              2640.4869
 Red. masses --      1.0546                 1.0630                 1.0780
 Frc consts  --      4.0158                 4.3488                 4.4282
 IR Inten    --    250.7651                27.0905                12.7955

                    118                    119                    120
                      A                      A                      A
 Frequencies --   2651.1800              2652.4950              2658.2798
 Red. masses --      1.0623                 1.0820                 1.0602
 Frc consts  --      4.3994                 4.4851                 4.4142
 IR Inten    --     83.5437                46.8719                41.1344

                    121                    122                    123
                      A                      A                      A
 Frequencies --   2661.4192              2662.5905              2667.3127
 Red. masses --      1.0665                 1.0668                 1.0660
 Frc consts  --      4.4508                 4.4560                 4.4686
 IR Inten    --     53.7314                66.8736                26.2945

                    124                    125                    126
                      A                      A                      A
 Frequencies --   2670.9915              2677.4322              2683.2181
 Red. masses --      1.0701                 1.0679                 1.0684
 Frc consts  --      4.4979                 4.5104                 4.5321
 IR Inten    --     35.1730                65.9069               164.0084

                    127                    128                    129
                      A                      A                      A
 Frequencies --   2683.6285              2715.0305              2721.1788
 Red. masses --      1.0730                 1.0448                 1.0489
 Frc consts  --      4.5530                 4.5375                 4.5762
 IR Inten    --    177.6677                45.8744                48.8291

 - Thermochemistry -
 -------------------
 Temperature   298.150 Kelvin.  Pressure   1.00000 Atm.
 Atom     1 has atomic number  8 and mass  15.99491

 Molecular mass:   342.11621 amu.
 Principal axes and moments of inertia in atomic units:
                           1         2         3
     Eigenvalues --  3882.98874********************
           X            0.99999  -0.00280  -0.00274
           Y            0.00280   0.99999   0.00284
           Z            0.00273  -0.00285   0.99999
 This molecule is an asymmetric top.
 Rotational symmetry number  1.
 Warning -- assumption of classical behavior for rotation
           may cause significant error
 Rotational temperatures (Kelvin)      0.02231     0.00792     0.00667
 Rotational constants (GHZ):           0.46478     0.16507     0.13888
 Zero-point vibrational energy     854355.7 (Joules/Mol)
                                  204.19590 (Kcal/Mol)
 Warning -- explicit consideration of  44 degrees of freedom as
           vibrations may cause significant error
 Vibrational temperatures:     33.65    39.95    64.43    78.23   109.28
          (Kelvin)            125.03   132.38   148.55   152.85   190.58
                              215.95   236.83   266.90   286.51   304.85
                              328.25   347.69   351.37   383.76   407.99
                              414.10   435.92   475.35   482.49   517.00
                              536.50   538.73   547.39   563.59   570.31
                              578.53   608.19   626.78   664.46   674.14
                              706.84   728.90   755.96   762.89   779.47
                              824.56   839.10   879.78   887.19   898.65
                              946.60  1060.31  1204.34  1257.96  1347.00
                             1386.99  1414.10  1420.81  1446.54  1450.04
                             1488.82  1508.05  1525.32  1533.09  1556.39
                             1561.89  1570.15  1578.79  1583.72  1590.86
                             1598.51  1605.44  1613.10  1633.06  1636.70
                             1642.42  1647.46  1653.98  1667.19  1674.73
                             1679.96  1691.03  1696.71  1702.74  1709.05
                             1714.95  1721.58  1722.22  1726.38  1734.99
                             1737.87  1749.31  1758.56  1763.47  1777.62
                             1782.75  1791.02  1793.31  1797.01  1807.59
                             1816.63  1817.40  1836.37  1842.25  1899.58
                             1918.49  1931.50  1952.67  1953.88  1969.55
                             1970.61  2014.03  3309.74  3577.45  3583.90
                             3606.57  3625.48  3630.91  3649.94  3657.64
                             3791.20  3799.07  3814.46  3816.35  3824.67
                             3829.19  3830.87  3837.67  3842.96  3852.23
                             3860.55  3861.14  3906.32  3915.17

 Zero-point correction=                           0.325407 (Hartree/Particle)
 Thermal correction to Energy=                    0.349817
 Thermal correction to Enthalpy=                  0.350762
 Thermal correction to Gibbs Free Energy=         0.271782
 Sum of electronic and zero-point Energies=             -0.469749
 Sum of electronic and thermal Energies=                -0.445339
 Sum of electronic and thermal Enthalpies=              -0.444395
 Sum of electronic and thermal Free Energies=           -0.523375

                     E (Thermal)             CV                S
                      KCal/Mol        Cal/Mol-Kelvin    Cal/Mol-Kelvin
 Total                  219.514             93.784            166.228
 Electronic               0.000              0.000              0.000
 Translational            0.889              2.981             43.384
 Rotational               0.889              2.981             34.666
 Vibrational            217.736             87.822             88.177
 Vibration     1          0.593              1.985              6.324
 Vibration     2          0.593              1.984              5.983
 Vibration     3          0.595              1.979              5.036
 Vibration     4          0.596              1.976              4.652
 Vibration     5          0.599              1.965              3.993
 Vibration     6          0.601              1.958              3.729
 Vibration     7          0.602              1.955              3.617
 Vibration     8          0.605              1.947              3.392
 Vibration     9          0.605              1.944              3.337
 Vibration    10          0.613              1.921              2.910
 Vibration    11          0.618              1.903              2.671
 Vibration    12          0.623              1.886              2.496
 Vibration    13          0.632              1.860              2.272
 Vibration    14          0.637              1.841              2.141
 Vibration    15          0.643              1.823              2.027
 Vibration    16          0.651              1.798              1.894
 Vibration    17          0.658              1.777              1.791
 Vibration    18          0.660              1.772              1.772
 Vibration    19          0.672              1.734              1.617
 Vibration    20          0.682              1.704              1.512
 Vibration    21          0.685              1.696              1.487
 Vibration    22          0.694              1.668              1.400
 Vibration    23          0.713              1.615              1.258
 Vibration    24          0.716              1.605              1.234
 Vibration    25          0.734              1.556              1.125
 Vibration    26          0.744              1.528              1.068
 Vibration    27          0.746              1.525              1.062
 Vibration    28          0.750              1.512              1.037
 Vibration    29          0.759              1.488              0.994
 Vibration    30          0.763              1.478              0.976
 Vibration    31          0.768              1.466              0.955
 Vibration    32          0.785              1.421              0.883
 Vibration    33          0.796              1.393              0.840
 Vibration    34          0.820              1.335              0.761
 Vibration    35          0.826              1.320              0.742
 Vibration    36          0.847              1.269              0.680
 Vibration    37          0.862              1.235              0.642
 Vibration    38          0.880              1.194              0.598
 Vibration    39          0.885              1.183              0.587
 Vibration    40          0.897              1.158              0.562
 Vibration    41          0.929              1.089              0.498
 Vibration    42          0.940              1.068              0.479
 Vibration    43          0.971              1.008              0.430
 Vibration    44          0.976              0.997              0.422

                           ! Non-Optimized Parameters !
 Normal termination of Gaussian 16 at Tue Jun 22 14:21:54 2021.
