 Gaussian 16, Revision B.01,
 Gaussian 16:  ES64L-G16RevB.01 20-Dec-2017

 --------------------------------------
 #P pm6 opt=loose freq int=(grid=99590)
 --------------------------------------

 ------------
 offspring-12
 ------------
 Symbolic Z-matrix:
 Charge =  0 Multiplicity = 1

 SCF Done:  E(RPM6) = -0.736872094436     A.U. after   14 cycles
 SCF Done:  E(RPM6) = -0.756077815640     A.U. after   13 cycles
 SCF Done:  E(RPM6) = -0.752659960990     A.U. after   13 cycles
 SCF Done:  E(RPM6) = -0.766392409665     A.U. after   12 cycles
 SCF Done:  E(RPM6) = -0.740920980904     A.U. after   13 cycles
 SCF Done:  E(RPM6) = -0.770192358910     A.U. after   12 cycles
 SCF Done:  E(RPM6) = -0.772370406442     A.U. after   11 cycles
 SCF Done:  E(RPM6) = -0.774458830539     A.U. after   12 cycles
 SCF Done:  E(RPM6) = -0.775352586651     A.U. after   12 cycles
 SCF Done:  E(RPM6) = -0.776494940236     A.U. after   12 cycles
 SCF Done:  E(RPM6) = -0.772042690368     A.U. after   12 cycles
 SCF Done:  E(RPM6) = -0.781510893365     A.U. after   12 cycles
 SCF Done:  E(RPM6) = -0.781694492916     A.U. after   10 cycles
 SCF Done:  E(RPM6) = -0.781231796749     A.U. after   12 cycles
 SCF Done:  E(RPM6) = -0.781867093335     A.U. after   12 cycles
 SCF Done:  E(RPM6) = -0.781930186259     A.U. after   11 cycles
 SCF Done:  E(RPM6) = -0.781968720101     A.U. after   11 cycles
 SCF Done:  E(RPM6) = -0.781983820886     A.U. after   10 cycles
 SCF Done:  E(RPM6) = -0.781989168617     A.U. after    9 cycles
 Optimization completed.
    -- Stationary point found.
 Normal termination of Gaussian 16 at Tue Jun 22 14:22:24 2021.

 -------------------------------------------------------------
 #P Geom=AllCheck Guess=TCheck SCRF=Check GenChk RPM6/ZDO Freq
 -------------------------------------------------------------

 Structure from the checkpoint file:  "/scratch-data/gaussian/Gau-16724.chk"
 ------------
 offspring-12
 ------------
 Charge =  0 Multiplicity = 1

                         Standard orientation:
 ---------------------------------------------------------------------
 Center     Atomic      Atomic             Coordinates (Angstroms)
 Number     Number       Type             X           Y           Z
 ---------------------------------------------------------------------
      1          8           0       -1.765033    0.770031   -1.819874
      2          6           0       -2.551662    1.375641   -0.779632
      3          6           0       -1.616647    2.215995    0.120723
      4          8           0       -0.984341    3.118593   -0.797109
      5          6           0       -0.549708    1.295079    0.751356
      6          6           0       -1.239547    0.147835    1.523589
      7          8           0       -2.640975    0.123355    1.347921
      8          6           0       -3.208917    0.233001    0.022233
      9          6           0       -3.199246   -1.128658   -0.691829
     10          8           0       -4.446678   -1.782062   -0.442580
     11          8           0        2.807086    1.098504    1.146238
     12          6           0        2.658503   -0.216896    0.554563
     13          6           0        1.598194   -0.969673    1.382387
     14          6           0        0.401238   -1.581953    0.627818
     15          6           0        0.334310   -1.405924   -0.913404
     16          8           0        1.614038   -1.044994   -1.479947
     17          6           0        2.253907    0.095948   -0.898935
     18          6           0        3.477686    0.320127   -1.811490
     19          8           0        4.560073    0.900168   -1.085161
     20          8           0        0.082731   -2.643750   -1.528803
     21          8           0       -0.840217   -1.203617    1.217979
     22          8           0        2.365271   -2.036385    1.968843
     23          8           0        0.150253    2.080417    1.719536
     24          1           0       -3.316942    2.023226   -1.266159
     25          1           0       -2.164752    2.793268    0.896862
     26          1           0       -0.387436    3.727376   -0.302239
     27          1           0        0.151838    0.954231   -0.044551
     28          1           0       -1.144201    0.251114    2.632237
     29          1           0       -4.263647    0.504524    0.295720
     30          1           0       -3.174356   -1.023918   -1.796279
     31          1           0       -2.356973   -1.762226   -0.351881
     32          1           0       -4.464134   -2.132638    0.474545
     33          1           0        3.636046   -0.760833    0.600894
     34          1           0        1.227705   -0.311175    2.208013
     35          1           0        0.369610   -2.692116    0.837874
     36          1           0       -0.472799   -0.717350   -1.268490
     37          1           0        1.547271    0.964956   -0.920757
     38          1           0        3.890736   -0.645221   -2.173050
     39          1           0        3.222868    0.957024   -2.676649
     40          1           0        4.266853    1.724203   -0.631299
     41          1           0        1.847265   -2.496036    2.665541
     42          1           0        3.479117    1.069934    1.864160
     43          1           0        1.135972    1.920719    1.641585
     44          1           0        0.920879   -3.158768   -1.644169
     45          1           0       -1.317244    1.484468   -2.342519
 ---------------------------------------------------------------------

 SCF Done:  E(RPM6) = -0.781989168611     A.U. after    2 cycles

 The electronic state is 1-A.
 Alpha  occ. eigenvalues --   -1.17951  -1.16116  -1.14753  -1.13226  -1.13000
 Alpha  occ. eigenvalues --   -1.12129  -1.11514  -1.10462  -1.10078  -1.09547
 Alpha  occ. eigenvalues --   -1.09345  -1.01965  -1.00471  -1.00173  -0.98580
 Alpha  occ. eigenvalues --   -0.93511  -0.91571  -0.87761  -0.86731  -0.83276
 Alpha  occ. eigenvalues --   -0.82768  -0.78211  -0.74916  -0.74824  -0.72439
 Alpha  occ. eigenvalues --   -0.70401  -0.69902  -0.68350  -0.67859  -0.66402
 Alpha  occ. eigenvalues --   -0.66041  -0.65266  -0.64866  -0.64105  -0.62142
 Alpha  occ. eigenvalues --   -0.60872  -0.60456  -0.59713  -0.59229  -0.58527
 Alpha  occ. eigenvalues --   -0.56804  -0.55784  -0.55637  -0.54479  -0.53809
 Alpha  occ. eigenvalues --   -0.53245  -0.51758  -0.51021  -0.50766  -0.50524
 Alpha  occ. eigenvalues --   -0.49455  -0.48885  -0.48453  -0.48386  -0.46857
 Alpha  occ. eigenvalues --   -0.46359  -0.45957  -0.44346  -0.43899  -0.43437
 Alpha  occ. eigenvalues --   -0.42964  -0.42543  -0.41820  -0.40989  -0.40676
 Alpha  occ. eigenvalues --   -0.39744  -0.38370  -0.37711
 Alpha virt. eigenvalues --    0.01492   0.02540   0.03639   0.04386   0.05207
 Alpha virt. eigenvalues --    0.05608   0.05837   0.06500   0.06933   0.07576
 Alpha virt. eigenvalues --    0.07700   0.08122   0.08326   0.08685   0.09426

 Mulliken charges:
               1
     1  O   -0.561289
     2  C    0.069090
     3  C    0.083935
     4  O   -0.563961
     5  C   -0.023440
     6  C    0.336418
     7  O   -0.448975
     8  C    0.067581
     9  C   -0.043261
    10  O   -0.538822
    11  O   -0.592139
    12  C    0.075465
    13  C    0.051065
    14  C   -0.017850
    15  C    0.325137
    16  O   -0.504674
    17  C    0.072066
    18  C   -0.025566
    19  O   -0.531681
    20  O   -0.518375
    21  O   -0.507133
    22  O   -0.551169
    23  O   -0.561185
    24  H    0.148125
    25  H    0.154730
    26  H    0.333034
    27  H    0.153196
    28  H    0.162544
    29  H    0.171225
    30  H    0.175703
    31  H    0.160992
    32  H    0.313025
    33  H    0.182343
    34  H    0.147733
    35  H    0.191315
    36  H    0.183395
    37  H    0.134958
    38  H    0.174743
    39  H    0.135829
    40  H    0.315907
    41  H    0.321506
    42  H    0.335206
    43  H    0.340310
    44  H    0.335379
    45  H    0.337569
 Sum of Mulliken charges =   0.00000

 Dipole moment (field-independent basis, Debye):
    X=              2.3315    Y=              2.7422    Z=              2.3632  Tot=              4.3058
 N-N= 1.428837933420D+03 E-N=-2.459762797895D+03  KE=-3.043945481126D+02
  Exact polarizability: 146.766   8.799 125.780   1.885   3.583 114.884
 Approx polarizability: 101.547   7.321  93.559   0.714   5.254  86.640
 Leave Link  601 at Tue Jun 22 14:22:25 2021, MaxMem=  2147483648 cpu:               0.2 elap:               0.0
 (Enter /home/matma/Programs/gaussian/G16_x86_SSE4/tar/g16/l701.exe)
 ... and contract with generalized density number  0.
 Compute integral second derivatives.
 Leave Link  701 at Tue Jun 22 14:22:25 2021, MaxMem=  2147483648 cpu:               0.6 elap:               0.1
 (Enter /home/matma/Programs/gaussian/G16_x86_SSE4/tar/g16/l702.exe)
 L702 exits ... SP integral derivatives will be done elsewhere.

                      1                      2                      3
                      A                      A                      A
 Frequencies --     26.5026                39.2738                49.2248
 Red. masses --      6.1569                 6.2954                 4.8541
 Frc consts  --      0.0025                 0.0057                 0.0069
 IR Inten    --      0.0480                 1.3530                 2.7433

                      4                      5                      6
                      A                      A                      A
 Frequencies --     57.4017                66.7142                68.7574
 Red. masses --      4.3411                 3.5855                 6.2936
 Frc consts  --      0.0084                 0.0094                 0.0175
 IR Inten    --      1.8304                 3.2466                 8.5001

                      7                      8                      9
                      A                      A                      A
 Frequencies --     79.5215               106.0988               115.9234
 Red. masses --      6.5961                 5.5943                 5.2541
 Frc consts  --      0.0246                 0.0371                 0.0416
 IR Inten    --      2.8532                 1.9981                 0.3938

                     10                     11                     12
                      A                      A                      A
 Frequencies --    117.9772               140.4762               148.3004
 Red. masses --      4.6932                 4.9461                 4.9890
 Frc consts  --      0.0385                 0.0575                 0.0646
 IR Inten    --      3.0412                 4.1775                 5.6918

                     13                     14                     15
                      A                      A                      A
 Frequencies --    180.0206               191.6016               213.8193
 Red. masses --      6.7020                 4.2969                 3.8278
 Frc consts  --      0.1280                 0.0929                 0.1031
 IR Inten    --      9.6630                 3.9455                16.7390

                     16                     17                     18
                      A                      A                      A
 Frequencies --    229.6184               236.4361               239.5187
 Red. masses --      5.2614                 3.5249                 1.3657
 Frc consts  --      0.1634                 0.1161                 0.0462
 IR Inten    --      4.3230                24.4716                79.5788

                     19                     20                     21
                      A                      A                      A
 Frequencies --    268.0104               271.8200               277.8018
 Red. masses --      6.5057                 2.6256                 1.6763
 Frc consts  --      0.2753                 0.1143                 0.0762
 IR Inten    --     25.6880                70.4519               152.4270

                     22                     23                     24
                      A                      A                      A
 Frequencies --    296.0862               300.3268               305.4326
 Red. masses --      2.4015                 5.2406                 1.4894
 Frc consts  --      0.1240                 0.2785                 0.0819
 IR Inten    --     27.9354                12.1370                74.1596

                     25                     26                     27
                      A                      A                      A
 Frequencies --    314.2072               325.3360               336.8222
 Red. masses --      1.5444                 2.9037                 4.5883
 Frc consts  --      0.0898                 0.1811                 0.3067
 IR Inten    --    168.2467                 2.4342                19.1540

                     28                     29                     30
                      A                      A                      A
 Frequencies --    350.1713               363.2699               387.5306
 Red. masses --      1.3326                 4.3117                 4.0907
 Frc consts  --      0.0963                 0.3352                 0.3620
 IR Inten    --    106.1016                 2.4735                29.9426

                     31                     32                     33
                      A                      A                      A
 Frequencies --    391.3082               401.1553               412.0383
 Red. masses --      1.7738                 1.9181                 1.3111
 Frc consts  --      0.1600                 0.1819                 0.1311
 IR Inten    --     58.6110                76.3917                88.4078

                     34                     35                     36
                      A                      A                      A
 Frequencies --    422.6517               437.0937               441.4547
 Red. masses --      2.1501                 3.0025                 1.6800
 Frc consts  --      0.2263                 0.3380                 0.1929
 IR Inten    --      1.4241                26.9707                17.8689

                     37                     38                     39
                      A                      A                      A
 Frequencies --    452.9671               472.6036               489.5281
 Red. masses --      2.9710                 4.9050                 3.9806
 Frc consts  --      0.3592                 0.6455                 0.5620
 IR Inten    --      5.3927                15.0134                 4.6528

                     40                     41                     42
                      A                      A                      A
 Frequencies --    493.4448               543.6154               560.4562
 Red. masses --      4.9806                 4.3518                 4.5199
 Frc consts  --      0.7145                 0.7577                 0.8365
 IR Inten    --      6.9522                 6.1315                 8.3315

                     43                     44                     45
                      A                      A                      A
 Frequencies --    600.0930               626.3936               637.3912
 Red. masses --      5.0097                 4.7792                 5.0624
 Frc consts  --      1.0629                 1.1048                 1.2118
 IR Inten    --      2.2268                 4.9892                23.5675

                     46                     47                     48
                      A                      A                      A
 Frequencies --    656.7383               768.6640               849.9314
 Red. masses --      5.6991                 4.9165                 2.1564
 Frc consts  --      1.4482                 1.7115                 0.9178
 IR Inten    --      4.2536                24.4148                 8.7676

                     49                     50                     51
                      A                      A                      A
 Frequencies --    870.2990               916.0804               936.2732
 Red. masses --      1.9518                 2.5871                 3.6018
 Frc consts  --      0.8710                 1.2792                 1.8603
 IR Inten    --      9.9825                 5.6067               106.0442

                     52                     53                     54
                      A                      A                      A
 Frequencies --    957.7487               971.7673               990.1089
 Red. masses --      2.7833                 1.9873                 2.6890
 Frc consts  --      1.5043                 1.1057                 1.5531
 IR Inten    --     13.1876                31.8833                14.0980

                     55                     56                     57
                      A                      A                      A
 Frequencies --    993.8960              1025.3455              1046.4868
 Red. masses --      2.8793                 2.2693                 2.1232
 Frc consts  --      1.6758                 1.4057                 1.3700
 IR Inten    --     71.7521                40.3890               249.9106

                     58                     59                     60
                      A                      A                      A
 Frequencies --   1053.2985              1065.8805              1071.9163
 Red. masses --      1.9846                 2.3880                 2.4867
 Frc consts  --      1.2972                 1.5985                 1.6835
 IR Inten    --      2.9723               101.8557                63.1278

                     61                     62                     63
                      A                      A                      A
 Frequencies --   1083.7585              1088.0745              1090.8513
 Red. masses --      2.6324                 2.6418                 2.4827
 Frc consts  --      1.8217                 1.8427                 1.7406
 IR Inten    --    119.4189               100.8011                68.0146

                     64                     65                     66
                      A                      A                      A
 Frequencies --   1103.0042              1108.6635              1115.1348
 Red. masses --      2.1770                 1.7377                 1.8151
 Frc consts  --      1.5605                 1.2584                 1.3298
 IR Inten    --    123.8134                52.0387                 8.0625

                     67                     68                     69
                      A                      A                      A
 Frequencies --   1118.2007              1122.0077              1129.9144
 Red. masses --      3.0089                 2.2062                 2.2729
 Frc consts  --      2.2167                 1.6364                 1.7097
 IR Inten    --      6.7367                41.4602                53.7493

                     70                     71                     72
                      A                      A                      A
 Frequencies --   1137.5518              1144.6087              1151.1754
 Red. masses --      1.7617                 2.7985                 2.6162
 Frc consts  --      1.3432                 2.1602                 2.0427
 IR Inten    --     19.3633                60.2069                 4.4039

                     73                     74                     75
                      A                      A                      A
 Frequencies --   1157.3526              1158.0800              1162.2333
 Red. masses --      1.6364                 1.4571                 1.7840
 Frc consts  --      1.2914                 1.1514                 1.4198
 IR Inten    --     11.6493                12.5023                28.8763

                     76                     77                     78
                      A                      A                      A
 Frequencies --   1173.4282              1175.3458              1181.8809
 Red. masses --      1.3339                 1.5798                 1.2521
 Frc consts  --      1.0821                 1.2858                 1.0305
 IR Inten    --     18.0613                42.2593                38.6887

                     79                     80                     81
                      A                      A                      A
 Frequencies --   1188.5660              1192.7818              1194.7551
 Red. masses --      1.3689                 1.3139                 1.3662
 Frc consts  --      1.1393                 1.1014                 1.1490
 IR Inten    --      3.4904                22.2123                12.8390

                     82                     83                     84
                      A                      A                      A
 Frequencies --   1199.6984              1203.3746              1205.8295
 Red. masses --      1.9653                 1.5454                 1.4579
 Frc consts  --      1.6666                 1.3186                 1.2490
 IR Inten    --     52.1352                72.4815                23.4868

                     85                     86                     87
                      A                      A                      A
 Frequencies --   1211.0869              1212.2736              1224.9781
 Red. masses --      1.5175                 1.5060                 1.4326
 Frc consts  --      1.3114                 1.3040                 1.2666
 IR Inten    --     18.0674                21.5324                12.4163

                     88                     89                     90
                      A                      A                      A
 Frequencies --   1227.4487              1233.0952              1241.8032
 Red. masses --      1.5052                 1.4130                 1.5874
 Frc consts  --      1.3361                 1.2659                 1.4422
 IR Inten    --      0.7706                11.4761                10.7564

                     91                     92                     93
                      A                      A                      A
 Frequencies --   1243.5778              1247.3595              1257.4194
 Red. masses --      1.5705                 1.7537                 1.2546
 Frc consts  --      1.4310                 1.6077                 1.1687
 IR Inten    --      7.3525                56.6010                11.1230

                     94                     95                     96
                      A                      A                      A
 Frequencies --   1260.4059              1269.2290              1271.0786
 Red. masses --      1.4221                 1.3446                 1.3884
 Frc consts  --      1.3311                 1.2762                 1.3217
 IR Inten    --     58.2829                15.6172                25.1143

                     97                     98                     99
                      A                      A                      A
 Frequencies --   1274.2829              1277.2893              1285.6725
 Red. masses --      1.5644                 1.5478                 1.5065
 Frc consts  --      1.4967                 1.4878                 1.4671
 IR Inten    --      4.1567                 3.2195                 5.3808

                    100                    101                    102
                      A                      A                      A
 Frequencies --   1325.2433              1331.5537              1338.3527
 Red. masses --      1.8076                 1.7176                 1.5919
 Frc consts  --      1.8705                 1.7943                 1.6800
 IR Inten    --      3.2898                 4.3206                 7.1613

                    103                    104                    105
                      A                      A                      A
 Frequencies --   1342.9468              1345.7809              1348.2940
 Red. masses --      1.5654                 1.6441                 1.1807
 Frc consts  --      1.6634                 1.7543                 1.2646
 IR Inten    --     46.2638                 3.0182                 3.8158

                    106                    107                    108
                      A                      A                      A
 Frequencies --   1353.6041              1359.6427              2439.4645
 Red. masses --      1.6686                 1.1933                 1.0574
 Frc consts  --      1.8013                 1.2997                 3.7075
 IR Inten    --     13.4525                 6.2088               446.6515

                    109                    110                    111
                      A                      A                      A
 Frequencies --   2531.0098              2536.4477              2539.6051
 Red. masses --      1.0545                 1.0550                 1.0548
 Frc consts  --      3.9802                 3.9991                 4.0082
 IR Inten    --    204.5978               174.2815               238.1213

                    112                    113                    114
                      A                      A                      A
 Frequencies --   2541.9228              2545.1537              2547.1034
 Red. masses --      1.0542                 1.0526                 1.0515
 Frc consts  --      4.0132                 4.0172                 4.0194
 IR Inten    --    200.2648               497.6675               137.5407

                    115                    116                    117
                      A                      A                      A
 Frequencies --   2555.8171              2594.9915              2600.0512
 Red. masses --      1.0526                 1.0663                 1.0642
 Frc consts  --      4.0511                 4.2305                 4.2389
 IR Inten    --    148.1003                67.7779                92.1008

                    118                    119                    120
                      A                      A                      A
 Frequencies --   2646.9648              2647.2325              2651.6768
 Red. masses --      1.0619                 1.0848                 1.0658
 Frc consts  --      4.3836                 4.4790                 4.4154
 IR Inten    --    116.2346                47.4759                83.5947

                    121                    122                    123
                      A                      A                      A
 Frequencies --   2656.1312              2656.4530              2660.0020
 Red. masses --      1.0692                 1.0781                 1.0698
 Frc consts  --      4.4444                 4.4826                 4.4597
 IR Inten    --     63.3671                28.2177               125.8279

                    124                    125                    126
                      A                      A                      A
 Frequencies --   2665.0327              2671.8313              2676.1277
 Red. masses --      1.0654                 1.0666                 1.0658
 Frc consts  --      4.4582                 4.4863                 4.4971
 IR Inten    --     37.8399               141.2512                19.5442

                    127                    128                    129
                      A                      A                      A
 Frequencies --   2682.8906              2709.5834              2720.7501
 Red. masses --      1.0706                 1.0470                 1.0453
 Frc consts  --      4.5402                 4.5291                 4.5588
 IR Inten    --    219.9689                53.6134                52.3666

 - Thermochemistry -
 -------------------
 Temperature   298.150 Kelvin.  Pressure   1.00000 Atm.
 Atom     1 has atomic number  8 and mass  15.99491

 Molecular mass:   342.11621 amu.
 Principal axes and moments of inertia in atomic units:
                           1         2         3
     Eigenvalues --  4745.915408872.911919801.35984
           X            1.00000   0.00219   0.00134
           Y           -0.00217   0.99986  -0.01674
           Z           -0.00138   0.01673   0.99986
 This molecule is an asymmetric top.
 Rotational symmetry number  1.
 Warning -- assumption of classical behavior for rotation
           may cause significant error
 Rotational temperatures (Kelvin)      0.01825     0.00976     0.00884
 Rotational constants (GHZ):           0.38027     0.20340     0.18413
 Zero-point vibrational energy     850578.2 (Joules/Mol)
                                  203.29306 (Kcal/Mol)
 Warning -- explicit consideration of  43 degrees of freedom as
           vibrations may cause significant error
 Vibrational temperatures:     38.13    56.51    70.82    82.59    95.99
          (Kelvin)             98.93   114.41   152.65   166.79   169.74
                              202.11   213.37   259.01   275.67   307.64
                              330.37   340.18   344.61   385.61   391.09
                              399.69   426.00   432.10   439.45   452.07
                              468.09   484.61   503.82   522.66   557.57
                              563.01   577.17   592.83   608.10   628.88
                              635.15   651.72   679.97   704.32   709.96
                              782.14   806.37   863.40   901.24   917.06
                              944.90  1105.94  1222.86  1252.17  1318.04
                             1347.09  1377.99  1398.16  1424.55  1429.99
                             1475.24  1505.66  1515.46  1533.56  1542.25
                             1559.29  1565.50  1569.49  1586.98  1595.12
                             1604.43  1608.84  1614.32  1625.69  1636.68
                             1646.84  1656.28  1665.17  1666.22  1672.19
                             1688.30  1691.06  1700.46  1710.08  1716.15
                             1718.99  1726.10  1731.39  1734.92  1742.48
                             1744.19  1762.47  1766.02  1774.15  1786.68
                             1789.23  1794.67  1809.15  1813.44  1826.14
                             1828.80  1833.41  1837.73  1849.80  1906.73
                             1915.81  1925.59  1932.20  1936.28  1939.89
                             1947.53  1956.22  3509.85  3641.56  3649.38
                             3653.93  3657.26  3661.91  3664.71  3677.25
                             3733.61  3740.89  3808.39  3808.78  3815.17
                             3821.58  3822.04  3827.15  3834.39  3844.17
                             3850.35  3860.08  3898.49  3914.55

 Zero-point correction=                           0.323968 (Hartree/Particle)
 Thermal correction to Energy=                    0.349140
 Thermal correction to Enthalpy=                  0.350085
 Thermal correction to Gibbs Free Energy=         0.269934
 Sum of electronic and zero-point Energies=             -0.458021
 Sum of electronic and thermal Energies=                -0.432849
 Sum of electronic and thermal Enthalpies=              -0.431905
 Sum of electronic and thermal Free Energies=           -0.512055

                     E (Thermal)             CV                S
                      KCal/Mol        Cal/Mol-Kelvin    Cal/Mol-Kelvin
 Total                  219.089             95.392            168.690
 Electronic               0.000              0.000              0.000
 Translational            0.889              2.981             43.384
 Rotational               0.889              2.981             34.378
 Vibrational            217.311             89.431             90.928
 Vibration     1          0.593              1.984              6.075
 Vibration     2          0.594              1.981              5.295
 Vibration     3          0.595              1.978              4.848
 Vibration     4          0.596              1.975              4.545
 Vibration     5          0.598              1.970              4.248
 Vibration     6          0.598              1.969              4.189
 Vibration     7          0.600              1.963              3.903
 Vibration     8          0.605              1.944              3.339
 Vibration     9          0.608              1.936              3.167
 Vibration    10          0.608              1.934              3.133
 Vibration    11          0.615              1.913              2.797
 Vibration    12          0.618              1.905              2.694
 Vibration    13          0.629              1.867              2.328
 Vibration    14          0.634              1.851              2.212
 Vibration    15          0.644              1.820              2.011
 Vibration    16          0.652              1.796              1.882
 Vibration    17          0.655              1.785              1.830
 Vibration    18          0.657              1.780              1.806
 Vibration    19          0.673              1.732              1.609
 Vibration    20          0.675              1.725              1.585
 Vibration    21          0.679              1.715              1.547
 Vibration    22          0.690              1.681              1.439
 Vibration    23          0.693              1.673              1.415
 Vibration    24          0.696              1.663              1.387
 Vibration    25          0.702              1.647              1.340
 Vibration    26          0.709              1.625              1.283
 Vibration    27          0.718              1.602              1.227
 Vibration    28          0.727              1.575              1.165
 Vibration    29          0.737              1.548              1.108
 Vibration    30          0.756              1.497              1.010
 Vibration    31          0.759              1.489              0.995
 Vibration    32          0.767              1.468              0.958
 Vibration    33          0.776              1.444              0.919
 Vibration    34          0.785              1.421              0.883
 Vibration    35          0.797              1.389              0.836
 Vibration    36          0.801              1.380              0.822
 Vibration    37          0.812              1.354              0.787
 Vibration    38          0.829              1.311              0.730
 Vibration    39          0.845              1.273              0.685
 Vibration    40          0.849              1.265              0.675
 Vibration    41          0.899              1.154              0.558
 Vibration    42          0.916              1.117              0.523
 Vibration    43          0.958              1.032              0.449

                           ! Non-Optimized Parameters !
 Normal termination of Gaussian 16 at Tue Jun 22 14:22:25 2021.
