 Gaussian 16, Revision B.01,
 Gaussian 16:  ES64L-G16RevB.01 20-Dec-2017

 --------------------------------------
 #P pm6 opt=loose freq int=(grid=99590)
 --------------------------------------

 ------------
 offspring-01
 ------------
 Symbolic Z-matrix:
 Charge =  0 Multiplicity = 1

 SCF Done:  E(RPM6) = -0.769678438780     A.U. after   14 cycles
 SCF Done:  E(RPM6) = -0.780634023790     A.U. after   12 cycles
 SCF Done:  E(RPM6) = -0.783243649467     A.U. after   12 cycles
 SCF Done:  E(RPM6) = -0.784691828326     A.U. after   12 cycles
 SCF Done:  E(RPM6) = -0.786676550402     A.U. after   12 cycles
 SCF Done:  E(RPM6) = -0.787798130944     A.U. after   12 cycles
 SCF Done:  E(RPM6) = -0.787992506128     A.U. after   12 cycles
 SCF Done:  E(RPM6) = -0.788401611166     A.U. after   11 cycles
 SCF Done:  E(RPM6) = -0.788432568244     A.U. after   11 cycles
 SCF Done:  E(RPM6) = -0.788551510695     A.U. after   11 cycles
 SCF Done:  E(RPM6) = -0.788715297460     A.U. after    9 cycles
 SCF Done:  E(RPM6) = -0.788716897224     A.U. after   10 cycles
 SCF Done:  E(RPM6) = -0.788718144340     A.U. after    9 cycles
 SCF Done:  E(RPM6) = -0.788720169492     A.U. after   10 cycles
 SCF Done:  E(RPM6) = -0.788722140168     A.U. after   10 cycles
 SCF Done:  E(RPM6) = -0.788724050724     A.U. after   10 cycles
 SCF Done:  E(RPM6) = -0.788725236174     A.U. after   10 cycles
 SCF Done:  E(RPM6) = -0.788725994775     A.U. after   10 cycles
 SCF Done:  E(RPM6) = -0.788726337582     A.U. after    9 cycles
 Optimization completed.
    -- Stationary point found.
 Normal termination of Gaussian 16 at Tue Jun 22 14:21:09 2021.

 -------------------------------------------------------------
 #P Geom=AllCheck Guess=TCheck SCRF=Check GenChk RPM6/ZDO Freq
 -------------------------------------------------------------

 Structure from the checkpoint file:  "/scratch-data/gaussian/Gau-23201.chk"
 ------------
 offspring-01
 ------------
 Charge =  0 Multiplicity = 1

                         Standard orientation:
 ---------------------------------------------------------------------
 Center     Atomic      Atomic             Coordinates (Angstroms)
 Number     Number       Type             X           Y           Z
 ---------------------------------------------------------------------
      1          8           0        4.260438    0.823488   -1.275802
      2          6           0        4.084659    0.447082    0.095062
      3          6           0        3.838647   -1.079682    0.170368
      4          8           0        4.799757   -1.627429   -0.739185
      5          6           0        2.407395   -1.400310   -0.307905
      6          6           0        1.409548   -0.729314    0.661622
      7          8           0        1.943167    0.397776    1.321855
      8          6           0        2.877415    1.261870    0.627350
      9          6           0        2.185547    2.103213   -0.457463
     10          8           0        1.649227    3.283894    0.132810
     11          8           0       -4.039827   -1.935712   -0.546697
     12          6           0       -3.343427   -0.872939    0.129055
     13          6           0       -1.849324   -1.241779    0.212813
     14          6           0       -0.932162   -0.037412    0.502562
     15          6           0       -1.380208    1.314240   -0.114742
     16          8           0       -2.805659    1.458591   -0.226913
     17          6           0       -3.555461    0.356678   -0.774699
     18          6           0       -5.008133    0.880487   -0.746450
     19          8           0       -5.903314   -0.051110   -0.148246
     20          8           0       -1.061331    2.365738    0.774185
     21          8           0        0.312708   -0.328371   -0.178590
     22          8           0       -1.797979   -2.144103    1.331299
     23          8           0        2.270316   -2.821281   -0.178668
     24          1           0        5.020002    0.712882    0.639514
     25          1           0        4.027327   -1.496852    1.184549
     26          1           0        4.624408   -2.591508   -0.862971
     27          1           0        2.244197   -1.080650   -1.362374
     28          1           0        1.069244   -1.379622    1.495208
     29          1           0        3.182626    1.921138    1.480847
     30          1           0        2.919046    2.496923   -1.196323
     31          1           0        1.400079    1.528911   -0.979061
     32          1           0        0.819814    3.072073    0.635112
     33          1           0       -3.783905   -0.730667    1.144452
     34          1           0       -1.515843   -1.772449   -0.709307
     35          1           0       -0.766752    0.083670    1.599582
     36          1           0       -0.877975    1.550218   -1.076137
     37          1           0       -3.202579    0.158469   -1.809955
     38          1           0       -5.090159    1.777533   -0.094930
     39          1           0       -5.360983    1.127634   -1.763535
     40          1           0       -5.827183   -0.937686   -0.591248
     41          1           0       -0.975485   -2.674908    1.311726
     42          1           0       -4.043569   -2.737744    0.029387
     43          1           0        1.642617   -3.162816   -0.851378
     44          1           0       -1.819436    2.560097    1.381007
     45          1           0        4.887515    0.190714   -1.717975
 ---------------------------------------------------------------------

 SCF Done:  E(RPM6) = -0.788726337579     A.U. after    2 cycles

 The electronic state is 1-A.
 Alpha  occ. eigenvalues --   -1.17185  -1.16683  -1.14643  -1.13958  -1.13361
 Alpha  occ. eigenvalues --   -1.12398  -1.10838  -1.10243  -1.09256  -1.09126
 Alpha  occ. eigenvalues --   -1.08461  -1.02410  -1.00769  -0.99982  -0.98380
 Alpha  occ. eigenvalues --   -0.92768  -0.90725  -0.87207  -0.86284  -0.83564
 Alpha  occ. eigenvalues --   -0.82384  -0.77334  -0.75035  -0.74567  -0.73433
 Alpha  occ. eigenvalues --   -0.69911  -0.69417  -0.69139  -0.67793  -0.66456
 Alpha  occ. eigenvalues --   -0.65710  -0.65251  -0.63699  -0.63173  -0.62705
 Alpha  occ. eigenvalues --   -0.61632  -0.60471  -0.59768  -0.58801  -0.57995
 Alpha  occ. eigenvalues --   -0.56200  -0.56027  -0.55503  -0.54842  -0.53531
 Alpha  occ. eigenvalues --   -0.52809  -0.51847  -0.51196  -0.50412  -0.49794
 Alpha  occ. eigenvalues --   -0.49584  -0.49037  -0.48909  -0.48095  -0.46639
 Alpha  occ. eigenvalues --   -0.46163  -0.45850  -0.44569  -0.44084  -0.43134
 Alpha  occ. eigenvalues --   -0.42463  -0.42187  -0.41305  -0.40915  -0.40201
 Alpha  occ. eigenvalues --   -0.39635  -0.39037  -0.37559
 Alpha virt. eigenvalues --    0.01247   0.03073   0.03083   0.04907   0.05011
 Alpha virt. eigenvalues --    0.05155   0.05489   0.06759   0.07320   0.07810
 Alpha virt. eigenvalues --    0.08202   0.08419   0.08888   0.09034   0.09705

 Mulliken charges:
               1
     1  O   -0.555371
     2  C    0.074785
     3  C    0.080018
     4  O   -0.556815
     5  C    0.006899
     6  C    0.318390
     7  O   -0.474443
     8  C    0.077850
     9  C   -0.037323
    10  O   -0.546622
    11  O   -0.559769
    12  C    0.080606
    13  C    0.051418
    14  C   -0.022567
    15  C    0.371512
    16  O   -0.514381
    17  C    0.077383
    18  C   -0.018681
    19  O   -0.539018
    20  O   -0.551521
    21  O   -0.513706
    22  O   -0.554053
    23  O   -0.547554
    24  H    0.143535
    25  H    0.150778
    26  H    0.336291
    27  H    0.171291
    28  H    0.143935
    29  H    0.173420
    30  H    0.180121
    31  H    0.138848
    32  H    0.329439
    33  H    0.170384
    34  H    0.151127
    35  H    0.177710
    36  H    0.156927
    37  H    0.139509
    38  H    0.172859
    39  H    0.130778
    40  H    0.328079
    41  H    0.317309
    42  H    0.332567
    43  H    0.321360
    44  H    0.345791
    45  H    0.340904
 Sum of Mulliken charges =   0.00000

 Dipole moment (field-independent basis, Debye):
    X=              0.6242    Y=             -5.1645    Z=             -0.8688  Tot=              5.2741
 N-N= 1.363136229047D+03 E-N=-2.328591532065D+03  KE=-3.043695537199D+02
  Exact polarizability: 158.424   3.089 136.548  -1.798   3.262  98.579
 Approx polarizability:  99.325   4.701 100.138  -2.425   4.797  79.469
 Leave Link  601 at Tue Jun 22 14:21:10 2021, MaxMem=  2147483648 cpu:               0.2 elap:               0.0
 (Enter /home/matma/Programs/gaussian/G16_x86_SSE4/tar/g16/l701.exe)
 ... and contract with generalized density number  0.
 Compute integral second derivatives.
 Leave Link  701 at Tue Jun 22 14:21:10 2021, MaxMem=  2147483648 cpu:               0.6 elap:               0.1
 (Enter /home/matma/Programs/gaussian/G16_x86_SSE4/tar/g16/l702.exe)
 L702 exits ... SP integral derivatives will be done elsewhere.

                      1                      2                      3
                      A                      A                      A
 Frequencies --      8.3766                11.7726                26.6935
 Red. masses --      5.4611                 6.4576                 6.4441
 Frc consts  --      0.0002                 0.0005                 0.0027
 IR Inten    --      0.3781                 0.5676                 0.5069

                      4                      5                      6
                      A                      A                      A
 Frequencies --     33.2491                54.1952                74.3165
 Red. masses --      6.0574                 4.6348                 6.3417
 Frc consts  --      0.0039                 0.0080                 0.0206
 IR Inten    --      1.4627                 2.1545                 1.7879

                      7                      8                      9
                      A                      A                      A
 Frequencies --     78.7994                93.1184               112.9141
 Red. masses --      5.4498                 4.9649                 4.7665
 Frc consts  --      0.0199                 0.0254                 0.0358
 IR Inten    --      2.0949                 0.7026                 0.5476

                     10                     11                     12
                      A                      A                      A
 Frequencies --    118.6783               129.0826               161.3062
 Red. masses --      4.9615                 4.5003                 5.9869
 Frc consts  --      0.0412                 0.0442                 0.0918
 IR Inten    --      6.9209                 7.8503                 1.9942

                     13                     14                     15
                      A                      A                      A
 Frequencies --    164.4305               196.4552               208.8356
 Red. masses --      6.2210                 4.3260                 2.3091
 Frc consts  --      0.0991                 0.0984                 0.0593
 IR Inten    --      3.5809                 0.8850                37.4370

                     16                     17                     18
                      A                      A                      A
 Frequencies --    211.7417               221.6211               232.0036
 Red. masses --      2.2053                 2.0597                 1.4903
 Frc consts  --      0.0583                 0.0596                 0.0473
 IR Inten    --     85.7001               100.1983                44.3349

                     19                     20                     21
                      A                      A                      A
 Frequencies --    239.8209               255.1902               265.1906
 Red. masses --      3.3780                 1.6124                 2.9548
 Frc consts  --      0.1145                 0.0619                 0.1224
 IR Inten    --     18.2571                91.9026                44.8619

                     22                     23                     24
                      A                      A                      A
 Frequencies --    281.5394               289.2775               298.4488
 Red. masses --      3.1621                 5.9666                 5.5032
 Frc consts  --      0.1477                 0.2942                 0.2888
 IR Inten    --     18.7889                 8.8338                 1.6936

                     25                     26                     27
                      A                      A                      A
 Frequencies --    322.8850               342.1737               347.8085
 Red. masses --      4.7296                 1.2562                 3.8094
 Frc consts  --      0.2905                 0.0867                 0.2715
 IR Inten    --     21.2346               102.1161                32.4244

                     28                     29                     30
                      A                      A                      A
 Frequencies --    355.9052               365.9084               378.3014
 Red. masses --      1.3983                 1.5287                 2.8488
 Frc consts  --      0.1044                 0.1206                 0.2402
 IR Inten    --    107.1753               113.6232                31.0398

                     31                     32                     33
                      A                      A                      A
 Frequencies --    385.2084               394.5856               407.1206
 Red. masses --      3.0679                 3.8752                 2.8362
 Frc consts  --      0.2682                 0.3555                 0.2770
 IR Inten    --     24.4050                 5.6850                 9.5432

                     34                     35                     36
                      A                      A                      A
 Frequencies --    414.9419               430.0008               447.7268
 Red. masses --      3.5915                 3.9435                 2.4911
 Frc consts  --      0.3643                 0.4296                 0.2942
 IR Inten    --     56.6515                48.3749                29.7072

                     37                     38                     39
                      A                      A                      A
 Frequencies --    462.3188               482.7530               508.3964
 Red. masses --      1.9707                 3.7724                 1.7910
 Frc consts  --      0.2482                 0.5180                 0.2727
 IR Inten    --     30.5178                12.4563               107.0494

                     40                     41                     42
                      A                      A                      A
 Frequencies --    515.2961               538.5831               559.1892
 Red. masses --      2.1354                 4.0555                 3.7478
 Frc consts  --      0.3341                 0.6931                 0.6905
 IR Inten    --     30.9982                13.8736                33.8078

                     43                     44                     45
                      A                      A                      A
 Frequencies --    578.8102               613.0335               619.4047
 Red. masses --      3.6725                 4.6585                 5.0228
 Frc consts  --      0.7249                 1.0315                 1.1354
 IR Inten    --      1.9297                 8.2047                28.7318

                     46                     47                     48
                      A                      A                      A
 Frequencies --    653.3265               752.6759               847.3616
 Red. masses --      4.5111                 5.0456                 2.2905
 Frc consts  --      1.1345                 1.6842                 0.9690
 IR Inten    --     15.3281                20.1435                13.1172

                     49                     50                     51
                      A                      A                      A
 Frequencies --    875.9519               916.0078               970.1978
 Red. masses --      1.7897                 2.4756                 2.0054
 Frc consts  --      0.8091                 1.2239                 1.1122
 IR Inten    --     11.1751                 6.7986                46.5936

                     52                     53                     54
                      A                      A                      A
 Frequencies --    986.6049               999.3662              1011.0337
 Red. masses --      2.6857                 3.0168                 2.8802
 Frc consts  --      1.5403                 1.7752                 1.7346
 IR Inten    --     11.9088                28.6969                33.4562

                     55                     56                     57
                      A                      A                      A
 Frequencies --   1025.0634              1037.2971              1052.5089
 Red. masses --      2.8852                 2.8288                 2.9603
 Frc consts  --      1.7862                 1.7933                 1.9322
 IR Inten    --     66.7607               234.8467               271.2538

                     58                     59                     60
                      A                      A                      A
 Frequencies --   1065.5790              1072.1752              1082.5047
 Red. masses --      3.2277                 2.0362                 1.9710
 Frc consts  --      2.1593                 1.3791                 1.3608
 IR Inten    --     67.9718                38.3022                57.3545

                     61                     62                     63
                      A                      A                      A
 Frequencies --   1085.8518              1089.0521              1091.9278
 Red. masses --      1.9596                 2.7621                 1.9485
 Frc consts  --      1.3613                 1.9301                 1.3688
 IR Inten    --     43.2704               126.5268                53.3713

                     64                     65                     66
                      A                      A                      A
 Frequencies --   1102.7717              1108.2140              1112.0011
 Red. masses --      2.4804                 2.8721                 2.6686
 Frc consts  --      1.7773                 2.0783                 1.9442
 IR Inten    --     78.3730                58.1433                29.7703

                     67                     68                     69
                      A                      A                      A
 Frequencies --   1116.2160              1124.5528              1129.8443
 Red. masses --      2.0400                 2.7088                 2.6960
 Frc consts  --      1.4975                 2.0183                 2.0277
 IR Inten    --     24.8707               113.8395                69.1877

                     70                     71                     72
                      A                      A                      A
 Frequencies --   1140.3480              1144.1455              1147.4367
 Red. masses --      1.6853                 1.5290                 2.7370
 Frc consts  --      1.2912                 1.1793                 2.1232
 IR Inten    --     31.3451                41.5435                 6.9007

                     73                     74                     75
                      A                      A                      A
 Frequencies --   1156.3267              1157.8486              1160.6802
 Red. masses --      1.7291                 1.8331                 1.5849
 Frc consts  --      1.3622                 1.4479                 1.2580
 IR Inten    --      5.3461                15.5509                42.3917

                     76                     77                     78
                      A                      A                      A
 Frequencies --   1165.7948              1172.8524              1176.1023
 Red. masses --      1.8211                 1.4917                 1.4720
 Frc consts  --      1.4583                 1.2090                 1.1996
 IR Inten    --     18.9434                 0.7851                13.9570

                     79                     80                     81
                      A                      A                      A
 Frequencies --   1179.5026              1183.6449              1186.6387
 Red. masses --      1.6187                 1.4766                 1.2700
 Frc consts  --      1.3269                 1.2189                 1.0536
 IR Inten    --     94.9005                14.6259                 1.2449

                     82                     83                     84
                      A                      A                      A
 Frequencies --   1193.9599              1195.9326              1200.3426
 Red. masses --      1.2852                 1.2885                 1.4101
 Frc consts  --      1.0795                 1.0858                 1.1971
 IR Inten    --     12.2899                 8.7752                77.0659

                     85                     86                     87
                      A                      A                      A
 Frequencies --   1204.6042              1210.5916              1213.1910
 Red. masses --      1.4190                 1.3851                 1.8765
 Frc consts  --      1.2132                 1.1960                 1.6273
 IR Inten    --     50.2833                 4.3387                45.0903

                     88                     89                     90
                      A                      A                      A
 Frequencies --   1224.1486              1229.3407              1234.8105
 Red. masses --      1.3431                 1.6023                 1.4930
 Frc consts  --      1.1859                 1.4267                 1.3413
 IR Inten    --      2.3243                 5.1030                12.3295

                     91                     92                     93
                      A                      A                      A
 Frequencies --   1240.8618              1242.3996              1247.9258
 Red. masses --      1.7745                 1.4948                 1.6747
 Frc consts  --      1.6098                 1.3594                 1.5366
 IR Inten    --     17.0993                30.0849                28.8992

                     94                     95                     96
                      A                      A                      A
 Frequencies --   1254.7170              1258.9098              1263.5603
 Red. masses --      1.3229                 1.2607                 1.2414
 Frc consts  --      1.2270                 1.1772                 1.1678
 IR Inten    --     17.0678                22.8372                18.7175

                     97                     98                     99
                      A                      A                      A
 Frequencies --   1272.7824              1278.5305              1288.2935
 Red. masses --      1.6810                 1.3751                 1.4359
 Frc consts  --      1.6044                 1.3244                 1.4042
 IR Inten    --     13.6011                 1.0545                 3.0817

                    100                    101                    102
                      A                      A                      A
 Frequencies --   1324.4263              1327.7999              1337.0977
 Red. masses --      1.7493                 1.6286                 1.5706
 Frc consts  --      1.8079                 1.6918                 1.6544
 IR Inten    --      8.8449                 2.0191                69.3064

                    103                    104                    105
                      A                      A                      A
 Frequencies --   1338.7086              1347.9520              1360.4051
 Red. masses --      1.7843                 1.8669                 1.1859
 Frc consts  --      1.8840                 1.9986                 1.2931
 IR Inten    --      3.1527                 6.3143                20.6014

                    106                    107                    108
                      A                      A                      A
 Frequencies --   1367.1769              1372.4663              2510.7294
 Red. masses --      1.1936                 1.4753                 1.0538
 Frc consts  --      1.3145                 1.6373                 3.9140
 IR Inten    --     11.7837                22.0467               262.3505

                    109                    110                    111
                      A                      A                      A
 Frequencies --   2512.5581              2519.0745              2531.9505
 Red. masses --      1.0537                 1.0548                 1.0517
 Frc consts  --      3.9193                 3.9436                 3.9726
 IR Inten    --    384.0482               135.9431               330.7820

                    112                    113                    114
                      A                      A                      A
 Frequencies --   2536.4462              2537.7215              2542.8075
 Red. masses --      1.0547                 1.0550                 1.0548
 Frc consts  --      3.9980                 4.0030                 4.0183
 IR Inten    --    114.2088               130.5826               277.5536

                    115                    116                    117
                      A                      A                      A
 Frequencies --   2546.6274              2646.9646              2652.6916
 Red. masses --      1.0547                 1.0881                 1.0831
 Frc consts  --      4.0302                 4.4917                 4.4905
 IR Inten    --    418.7881                84.5999                43.9470

                    118                    119                    120
                      A                      A                      A
 Frequencies --   2655.9871              2661.8347              2664.1061
 Red. masses --      1.0606                 1.0595                 1.0606
 Frc consts  --      4.4079                 4.4228                 4.4350
 IR Inten    --     44.7169                43.0364                30.7166

                    121                    122                    123
                      A                      A                      A
 Frequencies --   2665.7197              2666.2441              2671.9238
 Red. masses --      1.0626                 1.0686                 1.0653
 Frc consts  --      4.4487                 4.4758                 4.4810
 IR Inten    --     28.5385                34.0768                14.5907

                    124                    125                    126
                      A                      A                      A
 Frequencies --   2676.2882              2677.3407              2683.9814
 Red. masses --      1.0701                 1.0645                 1.0726
 Frc consts  --      4.5159                 4.4959                 4.5526
 IR Inten    --     24.9615                87.8478                97.4477

                    127                    128                    129
                      A                      A                      A
 Frequencies --   2685.8574              2707.2771              2715.8575
 Red. masses --      1.0742                 1.0465                 1.0448
 Frc consts  --      4.5656                 4.5191                 4.5406
 IR Inten    --    235.7696                42.0943                47.6388

 - Thermochemistry -
 -------------------
 Temperature   298.150 Kelvin.  Pressure   1.00000 Atm.
 Atom     1 has atomic number  8 and mass  15.99491

 Molecular mass:   342.11621 amu.
 Principal axes and moments of inertia in atomic units:
                           1         2         3
     Eigenvalues --  3716.71290********************
           X            1.00000  -0.00063   0.00148
           Y            0.00063   1.00000  -0.00005
           Z           -0.00148   0.00005   1.00000
 This molecule is an asymmetric top.
 Rotational symmetry number  1.
 Warning -- assumption of classical behavior for rotation
           may cause significant error
 Rotational temperatures (Kelvin)      0.02330     0.00678     0.00567
 Rotational constants (GHZ):           0.48557     0.14130     0.11822
 Zero-point vibrational energy     850651.0 (Joules/Mol)
                                  203.31047 (Kcal/Mol)
 Warning -- explicit consideration of  45 degrees of freedom as
           vibrations may cause significant error
 Vibrational temperatures:     12.05    16.94    38.41    47.84    77.97
          (Kelvin)            106.92   113.37   133.98   162.46   170.75
                              185.72   232.08   236.58   282.66   300.47
                              304.65   318.86   333.80   345.05   367.16
                              381.55   405.07   416.21   429.40   464.56
                              492.31   500.42   512.07   526.46   544.29
                              554.23   567.72   585.76   597.01   618.68
                              644.18   665.17   694.57   731.47   741.40
                              774.90   804.55   832.78   882.02   891.19
                              939.99  1082.93  1219.16  1260.30  1317.93
                             1395.90  1419.50  1437.87  1454.65  1474.84
                             1492.44  1514.33  1533.13  1542.62  1557.48
                             1562.30  1566.90  1571.04  1586.64  1594.47
                             1599.92  1605.99  1617.98  1625.59  1640.71
                             1646.17  1650.91  1663.70  1665.89  1669.96
                             1677.32  1687.47  1692.15  1697.04  1703.00
                             1707.31  1717.84  1720.68  1727.03  1733.16
                             1741.77  1745.51  1761.28  1768.75  1776.62
                             1785.32  1787.54  1795.49  1805.26  1811.29
                             1817.98  1831.25  1839.52  1853.57  1905.55
                             1910.41  1923.79  1926.10  1939.40  1957.32
                             1967.06  1974.67  3612.38  3615.01  3624.39
                             3642.91  3649.38  3651.22  3658.53  3664.03
                             3808.39  3816.63  3821.37  3829.79  3833.05
                             3835.38  3836.13  3844.30  3850.58  3852.10
                             3861.65  3864.35  3895.17  3907.51

 Zero-point correction=                           0.323996 (Hartree/Particle)
 Thermal correction to Energy=                    0.349573
 Thermal correction to Enthalpy=                  0.350517
 Thermal correction to Gibbs Free Energy=         0.266095
 Sum of electronic and zero-point Energies=             -0.464730
 Sum of electronic and thermal Energies=                -0.439154
 Sum of electronic and thermal Enthalpies=              -0.438210
 Sum of electronic and thermal Free Energies=           -0.522631

                     E (Thermal)             CV                S
                      KCal/Mol        Cal/Mol-Kelvin    Cal/Mol-Kelvin
 Total                  219.360             95.541            177.681
 Electronic               0.000              0.000              0.000
 Translational            0.889              2.981             43.384
 Rotational               0.889              2.981             34.937
 Vibrational            217.583             89.579             99.359
 Vibration     1          0.593              1.987              8.363
 Vibration     2          0.593              1.987              7.687
 Vibration     3          0.593              1.984              6.061
 Vibration     4          0.594              1.983              5.625
 Vibration     5          0.596              1.976              4.658
 Vibration     6          0.599              1.966              4.036
 Vibration     7          0.600              1.963              3.921
 Vibration     8          0.602              1.954              3.593
 Vibration     9          0.607              1.939              3.218
 Vibration    10          0.609              1.934              3.122
 Vibration    11          0.612              1.924              2.960
 Vibration    12          0.622              1.890              2.534
 Vibration    13          0.623              1.886              2.498
 Vibration    14          0.636              1.845              2.166
 Vibration    15          0.642              1.827              2.054
 Vibration    16          0.643              1.823              2.029
 Vibration    17          0.648              1.808              1.946
 Vibration    18          0.653              1.792              1.863
 Vibration    19          0.657              1.780              1.804
 Vibration    20          0.666              1.754              1.694
 Vibration    21          0.671              1.737              1.627
 Vibration    22          0.681              1.708              1.524
 Vibration    23          0.686              1.694              1.478
 Vibration    24          0.692              1.677              1.426
 Vibration    25          0.708              1.630              1.295
 Vibration    26          0.721              1.591              1.202
 Vibration    27          0.725              1.580              1.176
 Vibration    28          0.731              1.563              1.140
 Vibration    29          0.739              1.542              1.097
 Vibration    30          0.749              1.516              1.046
 Vibration    31          0.754              1.502              1.019
 Vibration    32          0.762              1.482              0.983
 Vibration    33          0.772              1.455              0.937
 Vibration    34          0.778              1.438              0.909
 Vibration    35          0.791              1.405              0.859
 Vibration    36          0.807              1.366              0.803
 Vibration    37          0.820              1.334              0.759
 Vibration    38          0.839              1.288              0.703
 Vibration    39          0.864              1.231              0.637
 Vibration    40          0.870              1.216              0.621
 Vibration    41          0.894              1.165              0.568
 Vibration    42          0.915              1.120              0.525
 Vibration    43          0.935              1.077              0.488
 Vibration    44          0.972              1.004              0.428
 Vibration    45          0.979              0.991              0.417

                           ! Non-Optimized Parameters !
 Normal termination of Gaussian 16 at Tue Jun 22 14:21:10 2021.
