 Gaussian 16, Revision B.01,
 Gaussian 16:  ES64L-G16RevB.01 20-Dec-2017

 --------------------------------------
 #P pm6 opt=loose freq int=(grid=99590)
 --------------------------------------

 ----------
 initial-03
 ----------
 Symbolic Z-matrix:
 Charge =  0 Multiplicity = 1

 SCF Done:  E(RPM6) = -0.697126858297     A.U. after   14 cycles
 SCF Done:  E(RPM6) = -0.729523564941     A.U. after   12 cycles
 SCF Done:  E(RPM6) = -0.721971450439     A.U. after   13 cycles
 SCF Done:  E(RPM6) = -0.751380993538     A.U. after   12 cycles
 SCF Done:  E(RPM6) = -0.758166239931     A.U. after   12 cycles
 SCF Done:  E(RPM6) = -0.766379712843     A.U. after   13 cycles
 SCF Done:  E(RPM6) = -0.769539630914     A.U. after   12 cycles
 SCF Done:  E(RPM6) = -0.772318623611     A.U. after   13 cycles
 SCF Done:  E(RPM6) = -0.773477370487     A.U. after   12 cycles
 SCF Done:  E(RPM6) = -0.773765769684     A.U. after   12 cycles
 SCF Done:  E(RPM6) = -0.784067997808     A.U. after   12 cycles
 SCF Done:  E(RPM6) = -0.784251587805     A.U. after   12 cycles
 SCF Done:  E(RPM6) = -0.784415607402     A.U. after   11 cycles
 SCF Done:  E(RPM6) = -0.784599556725     A.U. after   11 cycles
 SCF Done:  E(RPM6) = -0.784677129032     A.U. after   11 cycles
 SCF Done:  E(RPM6) = -0.784678780771     A.U. after   11 cycles
 SCF Done:  E(RPM6) = -0.784692999912     A.U. after   10 cycles
 SCF Done:  E(RPM6) = -0.784696777903     A.U. after    9 cycles
 SCF Done:  E(RPM6) = -0.784698460205     A.U. after    9 cycles
 Optimization completed.
    -- Stationary point found.
 Normal termination of Gaussian 16 at Tue Jun 22 14:18:21 2021.

 -------------------------------------------------------------
 #P Geom=AllCheck Guess=TCheck SCRF=Check GenChk RPM6/ZDO Freq
 -------------------------------------------------------------

 Structure from the checkpoint file:  "/scratch-data/gaussian/Gau-18176.chk"
 ----------
 initial-03
 ----------
 Charge =  0 Multiplicity = 1

                         Standard orientation:
 ---------------------------------------------------------------------
 Center     Atomic      Atomic             Coordinates (Angstroms)
 Number     Number       Type             X           Y           Z
 ---------------------------------------------------------------------
      1          8           0        3.409893    1.112436   -1.234351
      2          6           0        3.684451    0.360708   -0.048620
      3          6           0        3.590226   -1.153826   -0.335261
      4          8           0        4.415999   -1.317276   -1.496109
      5          6           0        2.146542   -1.578265   -0.661320
      6          6           0        1.149687   -1.090903    0.412821
      7          8           0        1.326427    0.291831    0.776480
      8          6           0        2.658108    0.804398    1.010391
      9          6           0        2.429709    2.329307    0.998369
     10          8           0        2.404006    2.817898    2.337090
     11          8           0       -0.795921    1.840480   -0.026685
     12          6           0       -1.611753    0.720794   -0.400479
     13          6           0       -1.221673   -0.505973    0.451059
     14          6           0       -2.297986   -1.599881    0.492019
     15          6           0       -3.748434   -1.043934    0.579373
     16          8           0       -3.952676    0.080577   -0.290677
     17          6           0       -3.049664    1.194405   -0.107695
     18          6           0       -3.560566    2.230108   -1.131900
     19          8           0       -2.521150    2.724408   -1.970433
     20          8           0       -4.649201   -2.002664    0.067957
     21          8           0       -2.041154   -2.288697    1.726434
     22          8           0       -0.100109   -1.090495   -0.271266
     23          8           0        2.195134   -3.010516   -0.629690
     24          1           0        4.721705    0.621340    0.279151
     25          1           0        4.007468   -1.774775    0.490575
     26          1           0        4.352015   -2.248179   -1.821263
     27          1           0        1.835108   -1.227056   -1.674589
     28          1           0        1.108798   -1.695783    1.338596
     29          1           0        2.965856    0.449004    2.022191
     30          1           0        3.271639    2.876659    0.528183
     31          1           0        1.486218    2.576955    0.464282
     32          1           0        1.548928    2.596917    2.767149
     33          1           0       -1.455505    0.513112   -1.487334
     34          1           0       -0.915908   -0.211195    1.482745
     35          1           0       -2.187237   -2.303590   -0.363564
     36          1           0       -4.072745   -0.824487    1.617004
     37          1           0       -3.140116    1.562957    0.937345
     38          1           0       -4.269745    1.759076   -1.846374
     39          1           0       -4.052781    3.079184   -0.624711
     40          1           0       -1.758151    3.051860   -1.422176
     41          1           0       -2.565542   -3.121358    1.762064
     42          1           0        0.178774    1.574132   -0.073760
     43          1           0        1.337678   -3.383918   -0.940866
     44          1           0       -4.824173   -1.836115   -0.893311
     45          1           0        3.885873    0.699769   -2.003890
 ---------------------------------------------------------------------

 SCF Done:  E(RPM6) = -0.784698460184     A.U. after    2 cycles

 The electronic state is 1-A.
 Alpha  occ. eigenvalues --   -1.16912  -1.16190  -1.14401  -1.13735  -1.12931
 Alpha  occ. eigenvalues --   -1.11898  -1.11304  -1.10054  -1.09625  -1.09162
 Alpha  occ. eigenvalues --   -1.08184  -1.02114  -1.01330  -0.99333  -0.98340
 Alpha  occ. eigenvalues --   -0.92197  -0.89802  -0.88244  -0.86286  -0.83404
 Alpha  occ. eigenvalues --   -0.81412  -0.77545  -0.76690  -0.73433  -0.71874
 Alpha  occ. eigenvalues --   -0.70229  -0.69952  -0.68639  -0.68140  -0.66422
 Alpha  occ. eigenvalues --   -0.65875  -0.65067  -0.64015  -0.62738  -0.62054
 Alpha  occ. eigenvalues --   -0.61727  -0.60547  -0.58864  -0.58278  -0.57667
 Alpha  occ. eigenvalues --   -0.56680  -0.55798  -0.55403  -0.54260  -0.53873
 Alpha  occ. eigenvalues --   -0.52924  -0.52497  -0.51668  -0.51228  -0.50572
 Alpha  occ. eigenvalues --   -0.49869  -0.48781  -0.48463  -0.47372  -0.47173
 Alpha  occ. eigenvalues --   -0.46354  -0.45342  -0.44387  -0.43287  -0.43164
 Alpha  occ. eigenvalues --   -0.42399  -0.41361  -0.40955  -0.40415  -0.40012
 Alpha  occ. eigenvalues --   -0.39860  -0.39064  -0.38418
 Alpha virt. eigenvalues --    0.01839   0.02416   0.02748   0.04773   0.05228
 Alpha virt. eigenvalues --    0.05459   0.06582   0.06902   0.07455   0.07627
 Alpha virt. eigenvalues --    0.08353   0.08612   0.08757   0.09055   0.09379

 Mulliken charges:
               1
     1  O   -0.546203
     2  C    0.070609
     3  C    0.073179
     4  O   -0.554356
     5  C    0.010879
     6  C    0.333623
     7  O   -0.545534
     8  C    0.085256
     9  C   -0.016077
    10  O   -0.532752
    11  O   -0.588277
    12  C    0.073422
    13  C    0.077885
    14  C    0.000398
    15  C    0.332270
    16  O   -0.513976
    17  C    0.076441
    18  C   -0.018355
    19  O   -0.540297
    20  O   -0.542133
    21  O   -0.545341
    22  O   -0.480383
    23  O   -0.549058
    24  H    0.149682
    25  H    0.150072
    26  H    0.337005
    27  H    0.174301
    28  H    0.137757
    29  H    0.146590
    30  H    0.175960
    31  H    0.143793
    32  H    0.314632
    33  H    0.169305
    34  H    0.172165
    35  H    0.158969
    36  H    0.149570
    37  H    0.139034
    38  H    0.170098
    39  H    0.129222
    40  H    0.331272
    41  H    0.324701
    42  H    0.352754
    43  H    0.329207
    44  H    0.341178
    45  H    0.341511
 Sum of Mulliken charges =   0.00000

 Dipole moment (field-independent basis, Debye):
    X=              0.8034    Y=             -3.4031    Z=              0.8605  Tot=              3.6009
 N-N= 1.364867499565D+03 E-N=-2.332178528847D+03  KE=-3.043620677237D+02
  Exact polarizability: 151.938   9.152 137.245  -0.619   0.750 108.802
 Approx polarizability:  98.563   9.990  98.332   0.801   0.854  83.163
 Leave Link  601 at Tue Jun 22 14:18:21 2021, MaxMem=  2147483648 cpu:               0.2 elap:               0.0
 (Enter /home/matma/Programs/gaussian/G16_x86_SSE4/tar/g16/l701.exe)
 ... and contract with generalized density number  0.
 Compute integral second derivatives.
 Leave Link  701 at Tue Jun 22 14:18:21 2021, MaxMem=  2147483648 cpu:               0.6 elap:               0.1
 (Enter /home/matma/Programs/gaussian/G16_x86_SSE4/tar/g16/l702.exe)
 L702 exits ... SP integral derivatives will be done elsewhere.

                      1                      2                      3
                      A                      A                      A
 Frequencies --     15.5281                25.3204                33.0072
 Red. masses --      6.4470                 6.0842                 5.9268
 Frc consts  --      0.0009                 0.0023                 0.0038
 IR Inten    --      0.2305                 0.7723                 1.0281

                      4                      5                      6
                      A                      A                      A
 Frequencies --     34.5861                42.9595                59.8118
 Red. masses --      5.2776                 4.1058                 5.2103
 Frc consts  --      0.0037                 0.0045                 0.0110
 IR Inten    --      2.3675                 2.6405                 2.8681

                      7                      8                      9
                      A                      A                      A
 Frequencies --     63.9994                65.9620                86.1541
 Red. masses --      6.0787                 5.8813                 6.0931
 Frc consts  --      0.0147                 0.0151                 0.0266
 IR Inten    --      2.9915                 0.6701                 4.9994

                     10                     11                     12
                      A                      A                      A
 Frequencies --    106.9802               123.6337               153.8056
 Red. masses --      5.3705                 4.1376                 6.4768
 Frc consts  --      0.0362                 0.0373                 0.0903
 IR Inten    --      0.1518                 0.8016                 2.2617

                     13                     14                     15
                      A                      A                      A
 Frequencies --    167.9651               183.5415               210.6604
 Red. masses --      6.8950                 4.2431                 6.4646
 Frc consts  --      0.1146                 0.0842                 0.1690
 IR Inten    --      1.9841                 7.8703                 4.1273

                     16                     17                     18
                      A                      A                      A
 Frequencies --    222.1746               233.4137               255.8293
 Red. masses --      4.5001                 5.3526                 3.6320
 Frc consts  --      0.1309                 0.1718                 0.1401
 IR Inten    --      2.7342                 7.7873                 8.3142

                     19                     20                     21
                      A                      A                      A
 Frequencies --    258.1220               274.3706               274.7546
 Red. masses --      2.6244                 3.7179                 1.4785
 Frc consts  --      0.1030                 0.1649                 0.0658
 IR Inten    --     33.1416                26.9578                 7.4135

                     22                     23                     24
                      A                      A                      A
 Frequencies --    286.5025               299.5320               308.9940
 Red. masses --      1.4792                 2.6114                 1.2690
 Frc consts  --      0.0715                 0.1380                 0.0714
 IR Inten    --    217.2134                84.5696                13.8550

                     25                     26                     27
                      A                      A                      A
 Frequencies --    311.6296               319.1475               331.8400
 Red. masses --      5.8777                 4.7011                 1.9843
 Frc consts  --      0.3363                 0.2821                 0.1287
 IR Inten    --     20.7185                 7.2928                33.1289

                     28                     29                     30
                      A                      A                      A
 Frequencies --    342.5346               347.4990               362.1486
 Red. masses --      1.3121                 1.5496                 1.3098
 Frc consts  --      0.0907                 0.1102                 0.1012
 IR Inten    --    121.8832                38.4327               166.8952

                     31                     32                     33
                      A                      A                      A
 Frequencies --    374.6360               395.9368               401.1502
 Red. masses --      4.4137                 3.8966                 3.3778
 Frc consts  --      0.3650                 0.3599                 0.3203
 IR Inten    --     25.4193                30.7201                30.5382

                     34                     35                     36
                      A                      A                      A
 Frequencies --    407.8578               430.5423               454.4652
 Red. masses --      4.1711                 4.1549                 4.2781
 Frc consts  --      0.4088                 0.4538                 0.5206
 IR Inten    --      1.4610                11.2009                49.8312

                     37                     38                     39
                      A                      A                      A
 Frequencies --    475.2363               504.8495               517.2317
 Red. masses --      3.2039                 1.3214                 1.5498
 Frc consts  --      0.4263                 0.1984                 0.2443
 IR Inten    --     42.8426               186.4444                25.2935

                     40                     41                     42
                      A                      A                      A
 Frequencies --    534.3731               556.2612               563.8240
 Red. masses --      5.0988                 2.2955                 5.2001
 Frc consts  --      0.8578                 0.4185                 0.9740
 IR Inten    --     22.9569                29.3495                 9.6793

                     43                     44                     45
                      A                      A                      A
 Frequencies --    572.5708               581.4496               618.9020
 Red. masses --      4.0277                 3.1097                 4.2545
 Frc consts  --      0.7780                 0.6194                 0.9602
 IR Inten    --     13.7982                 9.7217                 4.2869

                     46                     47                     48
                      A                      A                      A
 Frequencies --    648.6296               733.0436               869.7599
 Red. masses --      4.5819                 5.8618                 1.7091
 Frc consts  --      1.1358                 1.8558                 0.7617
 IR Inten    --     20.2962                 8.6114                14.4524

                     49                     50                     51
                      A                      A                      A
 Frequencies --    880.4681               918.0353               983.2686
 Red. masses --      1.7657                 3.3846                 2.2760
 Frc consts  --      0.8065                 1.6806                 1.2965
 IR Inten    --      8.6459                20.7169                15.8954

                     52                     53                     54
                      A                      A                      A
 Frequencies --    994.1052              1007.0272              1011.8875
 Red. masses --      3.0376                 3.2933                 3.4572
 Frc consts  --      1.7687                 1.9677                 2.0856
 IR Inten    --     32.6501                49.8388                17.4306

                     55                     56                     57
                      A                      A                      A
 Frequencies --   1036.2195              1038.8416              1045.7157
 Red. masses --      3.4190                 2.4616                 1.9323
 Frc consts  --      2.1630                 1.5652                 1.2450
 IR Inten    --    144.4976                32.3185               223.3453

                     58                     59                     60
                      A                      A                      A
 Frequencies --   1071.8366              1079.7017              1080.7049
 Red. masses --      2.4032                 2.5584                 2.4659
 Frc consts  --      1.6266                 1.7572                 1.6968
 IR Inten    --    134.9284                91.6545                42.8458

                     61                     62                     63
                      A                      A                      A
 Frequencies --   1086.5562              1090.8645              1097.3516
 Red. masses --      3.0287                 1.9616                 2.2366
 Frc consts  --      2.1067                 1.3753                 1.5868
 IR Inten    --     51.3552                61.5074                35.1848

                     64                     65                     66
                      A                      A                      A
 Frequencies --   1101.4400              1106.3578              1112.5249
 Red. masses --      2.0098                 2.7346                 2.8974
 Frc consts  --      1.4365                 1.9721                 2.1129
 IR Inten    --     39.9583                26.3341               124.1070

                     67                     68                     69
                      A                      A                      A
 Frequencies --   1115.2553              1125.0582              1125.9363
 Red. masses --      1.8797                 2.7769                 2.2370
 Frc consts  --      1.3775                 2.0709                 1.6709
 IR Inten    --     31.1775                73.0766                61.8656

                     70                     71                     72
                      A                      A                      A
 Frequencies --   1144.3630              1148.6917              1156.5063
 Red. masses --      2.0534                 1.8926                 1.6685
 Frc consts  --      1.5844                 1.4713                 1.3148
 IR Inten    --     17.1265                85.2119                32.2633

                     73                     74                     75
                      A                      A                      A
 Frequencies --   1157.8492              1158.7331              1161.2686
 Red. masses --      1.8849                 1.3884                 1.3144
 Frc consts  --      1.4888                 1.0983                 1.0444
 IR Inten    --     41.3997                 6.6345                 6.6849

                     76                     77                     78
                      A                      A                      A
 Frequencies --   1169.9699              1173.6934              1177.5164
 Red. masses --      1.5373                 1.2935                 1.3215
 Frc consts  --      1.2398                 1.0499                 1.0796
 IR Inten    --     41.6970                 9.9016                31.9817

                     79                     80                     81
                      A                      A                      A
 Frequencies --   1179.5112              1182.7062              1184.2484
 Red. masses --      1.3188                 1.5017                 2.2404
 Frc consts  --      1.0810                 1.2377                 1.8513
 IR Inten    --     16.4878                45.4312                41.0049

                     82                     83                     84
                      A                      A                      A
 Frequencies --   1188.1238              1192.3094              1202.2364
 Red. masses --      1.6771                 1.4287                 1.3301
 Frc consts  --      1.3949                 1.1967                 1.1327
 IR Inten    --     82.5712                 8.8201                30.6799

                     85                     86                     87
                      A                      A                      A
 Frequencies --   1206.1912              1214.0860              1217.9302
 Red. masses --      1.3370                 1.7403                 1.6838
 Frc consts  --      1.1461                 1.5113                 1.4716
 IR Inten    --     23.9347                20.8664                19.8929

                     88                     89                     90
                      A                      A                      A
 Frequencies --   1227.1914              1227.7674              1233.1747
 Red. masses --      1.4114                 1.7296                 1.4975
 Frc consts  --      1.2524                 1.5361                 1.3417
 IR Inten    --     13.1338                27.7602                34.1458

                     91                     92                     93
                      A                      A                      A
 Frequencies --   1237.9171              1248.6843              1250.1479
 Red. masses --      1.4704                 1.4932                 1.5408
 Frc consts  --      1.3276                 1.3717                 1.4188
 IR Inten    --     21.8306                 5.6071                31.7717

                     94                     95                     96
                      A                      A                      A
 Frequencies --   1255.3423              1261.2909              1265.4562
 Red. masses --      1.5834                 1.2853                 1.3265
 Frc consts  --      1.4701                 1.2047                 1.2516
 IR Inten    --     18.6020                 9.3673                14.7295

                     97                     98                     99
                      A                      A                      A
 Frequencies --   1266.9626              1281.1977              1281.8898
 Red. masses --      1.2106                 1.6747                 1.4170
 Frc consts  --      1.1449                 1.6196                 1.3719
 IR Inten    --     11.7828                15.5498                 1.0845

                    100                    101                    102
                      A                      A                      A
 Frequencies --   1334.4088              1335.7493              1341.8918
 Red. masses --      1.6931                 1.7339                 1.2407
 Frc consts  --      1.7763                 1.8228                 1.3163
 IR Inten    --      3.5960                14.4177                 8.2622

                    103                    104                    105
                      A                      A                      A
 Frequencies --   1345.9753              1347.2948              1352.2303
 Red. masses --      1.5794                 1.7880                 1.8066
 Frc consts  --      1.6858                 1.9123                 1.9464
 IR Inten    --     36.2148                 9.4712                21.6970

                    106                    107                    108
                      A                      A                      A
 Frequencies --   1370.7248              1375.3595              2411.9870
 Red. masses --      1.1985                 1.6659                 1.0577
 Frc consts  --      1.3267                 1.8566                 3.6255
 IR Inten    --     11.0626                29.2902               586.9456

                    109                    110                    111
                      A                      A                      A
 Frequencies --   2508.7606              2525.7074              2537.7222
 Red. masses --      1.0542                 1.0551                 1.0548
 Frc consts  --      3.9094                 3.9656                 4.0024
 IR Inten    --    187.8027               244.8535               226.8905

                    112                    113                    114
                      A                      A                      A
 Frequencies --   2541.3489              2543.3437              2546.2386
 Red. masses --      1.0526                 1.0547                 1.0542
 Frc consts  --      4.0054                 4.0197                 4.0271
 IR Inten    --    268.1448               241.4784               426.2167

                    115                    116                    117
                      A                      A                      A
 Frequencies --   2551.2029              2632.3948              2653.0074
 Red. masses --      1.0528                 1.0843                 1.0790
 Frc consts  --      4.0374                 4.4270                 4.4747
 IR Inten    --    125.9171               116.7396                28.2571

                    118                    119                    120
                      A                      A                      A
 Frequencies --   2654.1956              2657.4480              2659.6555
 Red. masses --      1.0615                 1.0594                 1.0648
 Frc consts  --      4.4058                 4.4081                 4.4377
 IR Inten    --     44.7283                 8.8727                32.9793

                    121                    122                    123
                      A                      A                      A
 Frequencies --   2663.3113              2664.8768              2667.9586
 Red. masses --      1.0615                 1.0635                 1.0674
 Frc consts  --      4.4360                 4.4500                 4.4765
 IR Inten    --     31.8459                43.0358                10.3035

                    124                    125                    126
                      A                      A                      A
 Frequencies --   2669.1447              2678.2064              2680.8329
 Red. masses --      1.0642                 1.0713                 1.0709
 Frc consts  --      4.4672                 4.5275                 4.5347
 IR Inten    --     20.5301               130.4795                10.8229

                    127                    128                    129
                      A                      A                      A
 Frequencies --   2684.6382              2706.3794              2716.1471
 Red. masses --      1.0740                 1.0505                 1.0449
 Frc consts  --      4.5606                 4.5334                 4.5417
 IR Inten    --    228.0219                62.6434                48.8325

 - Thermochemistry -
 -------------------
 Temperature   298.150 Kelvin.  Pressure   1.00000 Atm.
 Atom     1 has atomic number  8 and mass  15.99491

 Molecular mass:   342.11621 amu.
 Principal axes and moments of inertia in atomic units:
                           1         2         3
     Eigenvalues --  4992.63649********************
           X            0.99999  -0.00372   0.00090
           Y            0.00372   0.99999   0.00338
           Z           -0.00091  -0.00337   0.99999
 This molecule is an asymmetric top.
 Rotational symmetry number  1.
 Warning -- assumption of classical behavior for rotation
           may cause significant error
 Rotational temperatures (Kelvin)      0.01735     0.00771     0.00641
 Rotational constants (GHZ):           0.36148     0.16073     0.13355
 Zero-point vibrational energy     850325.9 (Joules/Mol)
                                  203.23276 (Kcal/Mol)
 Warning -- explicit consideration of  45 degrees of freedom as
           vibrations may cause significant error
 Vibrational temperatures:     22.34    36.43    47.49    49.76    61.81
          (Kelvin)             86.06    92.08    94.90   123.96   153.92
                              177.88   221.29   241.66   264.08   303.09
                              319.66   335.83   368.08   371.38   394.76
                              395.31   412.21   430.96   444.57   448.37
                              459.18   477.44   492.83   499.97   521.05
                              539.02   569.66   577.17   586.82   619.45
                              653.87   683.76   726.37   744.18   768.84
                              800.34   811.22   823.80   836.58   890.46
                              933.23  1054.69  1251.39  1266.80  1320.85
                             1414.70  1430.30  1448.89  1455.88  1490.89
                             1494.66  1504.55  1542.13  1553.45  1554.89
                             1563.31  1569.51  1578.84  1584.73  1591.80
                             1600.68  1604.60  1618.71  1619.97  1646.48
                             1652.71  1663.95  1665.89  1667.16  1670.81
                             1683.33  1688.68  1694.18  1697.05  1701.65
                             1703.87  1709.45  1715.47  1729.75  1735.44
                             1746.80  1752.33  1765.65  1766.48  1774.26
                             1781.09  1796.58  1798.68  1806.16  1814.72
                             1820.71  1822.88  1843.36  1844.35  1919.92
                             1921.85  1930.68  1936.56  1938.46  1945.56
                             1972.17  1978.84  3470.31  3609.55  3633.93
                             3651.22  3656.43  3659.30  3663.47  3670.61
                             3787.43  3817.09  3818.80  3823.47  3826.65
                             3831.91  3834.16  3838.60  3840.30  3853.34
                             3857.12  3862.60  3893.88  3907.93

 Zero-point correction=                           0.323872 (Hartree/Particle)
 Thermal correction to Energy=                    0.349546
 Thermal correction to Enthalpy=                  0.350490
 Thermal correction to Gibbs Free Energy=         0.266407
 Sum of electronic and zero-point Energies=             -0.460826
 Sum of electronic and thermal Energies=                -0.435152
 Sum of electronic and thermal Enthalpies=              -0.434208
 Sum of electronic and thermal Free Energies=           -0.518292

                     E (Thermal)             CV                S
                      KCal/Mol        Cal/Mol-Kelvin    Cal/Mol-Kelvin
 Total                  219.343             95.469            176.968
 Electronic               0.000              0.000              0.000
 Translational            0.889              2.981             43.384
 Rotational               0.889              2.981             34.981
 Vibrational            217.566             89.508             98.603
 Vibration     1          0.593              1.986              7.137
 Vibration     2          0.593              1.985              6.166
 Vibration     3          0.594              1.983              5.640
 Vibration     4          0.594              1.983              5.547
 Vibration     5          0.595              1.980              5.118
 Vibration     6          0.597              1.973              4.463
 Vibration     7          0.597              1.971              4.330
 Vibration     8          0.597              1.971              4.270
 Vibration     9          0.601              1.959              3.746
 Vibration    10          0.606              1.944              3.323
 Vibration    11          0.610              1.929              3.043
 Vibration    12          0.619              1.898              2.625
 Vibration    13          0.625              1.882              2.458
 Vibration    14          0.631              1.862              2.292
 Vibration    15          0.643              1.825              2.038
 Vibration    16          0.648              1.807              1.941
 Vibration    17          0.654              1.790              1.853
 Vibration    18          0.666              1.753              1.690
 Vibration    19          0.667              1.749              1.674
 Vibration    20          0.677              1.721              1.569
 Vibration    21          0.677              1.720              1.566
 Vibration    22          0.684              1.699              1.495
 Vibration    23          0.692              1.675              1.420
 Vibration    24          0.698              1.657              1.368
 Vibration    25          0.700              1.652              1.354
 Vibration    26          0.705              1.637              1.314
 Vibration    27          0.714              1.612              1.251
 Vibration    28          0.722              1.590              1.200
 Vibration    29          0.725              1.580              1.178
 Vibration    30          0.736              1.550              1.113
 Vibration    31          0.746              1.524              1.061
 Vibration    32          0.763              1.479              0.978
 Vibration    33          0.767              1.468              0.958
 Vibration    34          0.772              1.453              0.934
 Vibration    35          0.792              1.404              0.857
 Vibration    36          0.813              1.351              0.782
 Vibration    37          0.832              1.305              0.723
 Vibration    38          0.860              1.239              0.646
 Vibration    39          0.872              1.212              0.616
 Vibration    40          0.889              1.174              0.578
 Vibration    41          0.912              1.126              0.531
 Vibration    42          0.920              1.110              0.516
 Vibration    43          0.929              1.091              0.499
 Vibration    44          0.938              1.071              0.483
 Vibration    45          0.979              0.992              0.418

                           ! Non-Optimized Parameters !
 Normal termination of Gaussian 16 at Tue Jun 22 14:18:22 2021.
