 Gaussian 16, Revision B.01,
 Gaussian 16:  ES64L-G16RevB.01 20-Dec-2017

 --------------------------------------
 #P pm6 opt=loose freq int=(grid=99590)
 --------------------------------------

 ----------
 initial-01
 ----------
 Symbolic Z-matrix:
 Charge =  0 Multiplicity = 1

 SCF Done:  E(RPM6) = -0.657079243961     A.U. after   16 cycles
 SCF Done:  E(RPM6) = -0.703740050660     A.U. after   13 cycles
 SCF Done:  E(RPM6) = -0.737048783641     A.U. after   13 cycles
 SCF Done:  E(RPM6) = -0.748739402818     A.U. after   12 cycles
 SCF Done:  E(RPM6) = -0.754885669550     A.U. after   12 cycles
 SCF Done:  E(RPM6) = -0.760815479769     A.U. after   13 cycles
 SCF Done:  E(RPM6) = -0.765057941794     A.U. after   12 cycles
 SCF Done:  E(RPM6) = -0.767654944955     A.U. after   12 cycles
 SCF Done:  E(RPM6) = -0.769656845803     A.U. after   12 cycles
 SCF Done:  E(RPM6) = -0.773575915884     A.U. after   12 cycles
 SCF Done:  E(RPM6) = -0.788502039950     A.U. after   12 cycles
 SCF Done:  E(RPM6) = -0.788804654500     A.U. after   11 cycles
 SCF Done:  E(RPM6) = -0.789357622710     A.U. after   12 cycles
 SCF Done:  E(RPM6) = -0.789499308111     A.U. after   12 cycles
 SCF Done:  E(RPM6) = -0.789676294224     A.U. after   11 cycles
 SCF Done:  E(RPM6) = -0.789750243711     A.U. after   12 cycles
 SCF Done:  E(RPM6) = -0.789779536503     A.U. after   11 cycles
 SCF Done:  E(RPM6) = -0.789796541188     A.U. after   10 cycles
 SCF Done:  E(RPM6) = -0.789801496906     A.U. after   10 cycles
 Optimization completed.
    -- Stationary point found.
 Normal termination of Gaussian 16 at Tue Jun 22 14:17:45 2021.

 -------------------------------------------------------------
 #P Geom=AllCheck Guess=TCheck SCRF=Check GenChk RPM6/ZDO Freq
 -------------------------------------------------------------

 Structure from the checkpoint file:  "/scratch-data/gaussian/Gau-6539.chk"
 ----------
 initial-01
 ----------
 Charge =  0 Multiplicity = 1

                         Standard orientation:
 ---------------------------------------------------------------------
 Center     Atomic      Atomic             Coordinates (Angstroms)
 Number     Number       Type             X           Y           Z
 ---------------------------------------------------------------------
      1          8           0        1.520473   -0.134021    1.794311
      2          6           0        2.721518   -0.576070    1.135784
      3          6           0        3.410135    0.630732    0.470460
      4          8           0        3.639984    1.524046    1.569754
      5          6           0        2.457765    1.283613   -0.542534
      6          6           0        1.784516    0.268862   -1.491440
      7          8           0        1.865519   -1.109655   -1.181327
      8          6           0        2.319222   -1.627188    0.093396
      9          6           0        1.225842   -2.577803    0.603325
     10          8           0        1.947102   -3.798132    0.864272
     11          8           0       -3.953243   -1.125980   -1.023527
     12          6           0       -2.856388   -0.552106   -0.290349
     13          6           0       -1.603163   -0.519424   -1.185186
     14          6           0       -0.513515    0.396215   -0.592730
     15          6           0       -1.078100    1.796534   -0.247154
     16          8           0       -2.257670    1.659194    0.572425
     17          6           0       -3.343656    0.879528    0.026736
     18          6           0       -4.393129    0.912799    1.158519
     19          8           0       -4.951503   -0.373245    1.412035
     20          8           0       -0.205269    2.505983    0.605731
     21          8           0        0.404466    0.579661   -1.687401
     22          8           0       -1.138452   -1.874758   -1.224242
     23          8           0        3.307762    2.116264   -1.345380
     24          1           0        3.382453   -1.031106    1.914340
     25          1           0        4.385429    0.372202   -0.000915
     26          1           0        4.044322    2.361183    1.240049
     27          1           0        1.688405    1.912950   -0.018979
     28          1           0        2.169247    0.328315   -2.543005
     29          1           0        3.219980   -2.231269   -0.208440
     30          1           0        0.753050   -2.233323    1.543404
     31          1           0        0.447450   -2.750131   -0.168704
     32          1           0        1.318667   -4.531668    1.016799
     33          1           0       -2.685593   -1.156679    0.631060
     34          1           0       -1.849370   -0.216752   -2.231368
     35          1           0       -0.006212   -0.067238    0.288893
     36          1           0       -1.252355    2.451979   -1.121762
     37          1           0       -3.710416    1.378244   -0.897450
     38          1           0       -3.921918    1.188977    2.126047
     39          1           0       -5.206262    1.623274    0.926057
     40          1           0       -5.274339   -0.784759    0.566896
     41          1           0       -0.218797   -1.890389   -1.628875
     42          1           0       -3.706720   -2.036754   -1.317686
     43          1           0        2.781737    2.837112   -1.759085
     44          1           0       -0.333811    2.217866    1.546301
     45          1           0        1.755421    0.608958    2.410271
 ---------------------------------------------------------------------

 SCF Done:  E(RPM6) = -0.789801496906     A.U. after    2 cycles

 The electronic state is 1-A.
 Alpha  occ. eigenvalues --   -1.17175  -1.15824  -1.14093  -1.13495  -1.12942
 Alpha  occ. eigenvalues --   -1.11195  -1.10822  -1.10181  -1.09507  -1.09420
 Alpha  occ. eigenvalues --   -1.08198  -1.02749  -1.01140  -0.99518  -0.98614
 Alpha  occ. eigenvalues --   -0.92081  -0.90869  -0.87807  -0.85647  -0.82812
 Alpha  occ. eigenvalues --   -0.81970  -0.77765  -0.75320  -0.73596  -0.71962
 Alpha  occ. eigenvalues --   -0.70210  -0.69455  -0.68430  -0.67324  -0.66727
 Alpha  occ. eigenvalues --   -0.65319  -0.64615  -0.63850  -0.62951  -0.61989
 Alpha  occ. eigenvalues --   -0.61556  -0.60946  -0.60159  -0.58337  -0.57009
 Alpha  occ. eigenvalues --   -0.55957  -0.55716  -0.55525  -0.54278  -0.53874
 Alpha  occ. eigenvalues --   -0.52958  -0.51517  -0.51140  -0.50907  -0.50145
 Alpha  occ. eigenvalues --   -0.49659  -0.49096  -0.48517  -0.48011  -0.47223
 Alpha  occ. eigenvalues --   -0.46258  -0.45487  -0.45256  -0.42743  -0.42412
 Alpha  occ. eigenvalues --   -0.41916  -0.41399  -0.41299  -0.40550  -0.40127
 Alpha  occ. eigenvalues --   -0.39376  -0.39207  -0.38081
 Alpha virt. eigenvalues --    0.01912   0.02387   0.03792   0.04901   0.05451
 Alpha virt. eigenvalues --    0.05768   0.06155   0.06771   0.07487   0.07718
 Alpha virt. eigenvalues --    0.08498   0.08775   0.08917   0.09346   0.09540

 Mulliken charges:
               1
     1  O   -0.564393
     2  C    0.066554
     3  C    0.082144
     4  O   -0.560074
     5  C   -0.028909
     6  C    0.342355
     7  O   -0.508367
     8  C    0.115869
     9  C   -0.053209
    10  O   -0.557203
    11  O   -0.563653
    12  C    0.071918
    13  C    0.069807
    14  C   -0.040287
    15  C    0.354535
    16  O   -0.519349
    17  C    0.078000
    18  C   -0.019965
    19  O   -0.540336
    20  O   -0.539136
    21  O   -0.492303
    22  O   -0.574243
    23  O   -0.546057
    24  H    0.160209
    25  H    0.154485
    26  H    0.334715
    27  H    0.191063
    28  H    0.172156
    29  H    0.172035
    30  H    0.156103
    31  H    0.153279
    32  H    0.317285
    33  H    0.166746
    34  H    0.154081
    35  H    0.190089
    36  H    0.147855
    37  H    0.139843
    38  H    0.170381
    39  H    0.130127
    40  H    0.329376
    41  H    0.346577
    42  H    0.336435
    43  H    0.324568
    44  H    0.339709
    45  H    0.339186
 Sum of Mulliken charges =  -0.00000

 Dipole moment (field-independent basis, Debye):
    X=              1.3067    Y=              1.3800    Z=             -0.9699  Tot=              2.1337
 N-N= 1.399767152009D+03 E-N=-2.401986132071D+03  KE=-3.044835461252D+02
  Exact polarizability: 146.380   9.261 132.574  -2.684   0.257 108.656
 Approx polarizability:  97.429   6.875  97.489  -1.813   0.920  84.402
 Leave Link  601 at Tue Jun 22 14:17:46 2021, MaxMem=  2147483648 cpu:               0.2 elap:               0.0
 (Enter /home/matma/Programs/gaussian/G16_x86_SSE4/tar/g16/l701.exe)
 ... and contract with generalized density number  0.
 Compute integral second derivatives.
 Leave Link  701 at Tue Jun 22 14:17:46 2021, MaxMem=  2147483648 cpu:               0.6 elap:               0.1
 (Enter /home/matma/Programs/gaussian/G16_x86_SSE4/tar/g16/l702.exe)
 L702 exits ... SP integral derivatives will be done elsewhere.

 ******    1 imaginary frequencies (negative Signs) ******

                      1                      2                      3
                      A                      A                      A
 Frequencies --    -57.5890                24.7527                27.0089
 Red. masses --      1.1774                 5.4113                 6.2506
 Frc consts  --      0.0023                 0.0020                 0.0027
 IR Inten    --     61.8688                 0.5440                 0.0682

                      4                      5                      6
                      A                      A                      A
 Frequencies --     43.4442                57.3883                61.7210
 Red. masses --      4.4419                 6.0605                 4.4191
 Frc consts  --      0.0049                 0.0118                 0.0099
 IR Inten    --      1.7987                 8.3128                 8.7230

                      7                      8                      9
                      A                      A                      A
 Frequencies --     68.6864                72.5140               107.7757
 Red. masses --      3.8977                 5.5648                 5.2656
 Frc consts  --      0.0108                 0.0172                 0.0360
 IR Inten    --     33.4153                10.0367                 2.2250

                     10                     11                     12
                      A                      A                      A
 Frequencies --    110.0454               129.7655               131.9818
 Red. masses --      5.2926                 4.7489                 6.9413
 Frc consts  --      0.0378                 0.0471                 0.0712
 IR Inten    --      4.3289                 1.1478                 1.8878

                     13                     14                     15
                      A                      A                      A
 Frequencies --    153.3604               161.3029               196.0377
 Red. masses --      6.3439                 5.6072                 5.1843
 Frc consts  --      0.0879                 0.0860                 0.1174
 IR Inten    --      5.2942                 3.9218                 5.3338

                     16                     17                     18
                      A                      A                      A
 Frequencies --    228.1383               235.7254               241.1516
 Red. masses --      4.3406                 5.0265                 3.9268
 Frc consts  --      0.1331                 0.1646                 0.1345
 IR Inten    --     26.2831                 3.7766                34.9651

                     19                     20                     21
                      A                      A                      A
 Frequencies --    246.8195               257.8408               270.9180
 Red. masses --      3.8580                 3.5850                 1.3598
 Frc consts  --      0.1385                 0.1404                 0.0588
 IR Inten    --     18.1960                 5.0707                59.5587

                     22                     23                     24
                      A                      A                      A
 Frequencies --    278.9065               281.4920               308.1703
 Red. masses --      1.5547                 4.7804                 4.0898
 Frc consts  --      0.0713                 0.2232                 0.2288
 IR Inten    --    103.6325                 3.9224                76.0903

                     25                     26                     27
                      A                      A                      A
 Frequencies --    314.7033               321.3910               335.8873
 Red. masses --      4.0950                 5.1560                 1.1336
 Frc consts  --      0.2390                 0.3138                 0.0754
 IR Inten    --     48.2516                14.5803               141.6426

                     28                     29                     30
                      A                      A                      A
 Frequencies --    350.0801               364.2840               381.5603
 Red. masses --      1.3951                 5.1906                 3.3388
 Frc consts  --      0.1007                 0.4058                 0.2864
 IR Inten    --    109.1444                 9.1906                15.9218

                     31                     32                     33
                      A                      A                      A
 Frequencies --    389.4256               394.8387               400.9836
 Red. masses --      1.8585                 2.8015                 3.9826
 Frc consts  --      0.1661                 0.2573                 0.3773
 IR Inten    --    106.6615                 0.3553                14.7502

                     34                     35                     36
                      A                      A                      A
 Frequencies --    411.6928               422.0126               442.6994
 Red. masses --      1.6463                 1.5310                 4.8763
 Frc consts  --      0.1644                 0.1606                 0.5631
 IR Inten    --    178.0972                39.6712                13.0972

                     37                     38                     39
                      A                      A                      A
 Frequencies --    461.4603               476.8961               498.9488
 Red. masses --      4.1401                 3.0685                 2.1357
 Frc consts  --      0.5194                 0.4112                 0.3133
 IR Inten    --      3.0716                26.8100                87.2366

                     40                     41                     42
                      A                      A                      A
 Frequencies --    508.4181               524.9204               545.4351
 Red. masses --      2.0713                 3.8556                 4.3160
 Frc consts  --      0.3154                 0.6259                 0.7565
 IR Inten    --     40.1250                48.1441                 6.3101

                     43                     44                     45
                      A                      A                      A
 Frequencies --    584.4132               602.8164               635.1424
 Red. masses --      3.3526                 4.7510                 4.7533
 Frc consts  --      0.6746                 1.0172                 1.1298
 IR Inten    --      9.2732                10.2729                20.4460

                     46                     47                     48
                      A                      A                      A
 Frequencies --    682.8646               744.3157               877.6027
 Red. masses --      5.8808                 5.4306                 3.0799
 Frc consts  --      1.6157                 1.7726                 1.3976
 IR Inten    --      4.9984                15.5212                15.1479

                     49                     50                     51
                      A                      A                      A
 Frequencies --    880.2342               895.0338               964.2743
 Red. masses --      1.9098                 1.7956                 2.2085
 Frc consts  --      0.8718                 0.8475                 1.2099
 IR Inten    --     20.5531                 3.5914                21.9300

                     52                     53                     54
                      A                      A                      A
 Frequencies --    970.0953              1000.3399              1006.2341
 Red. masses --      3.2556                 2.6274                 2.6193
 Frc consts  --      1.8051                 1.5490                 1.5625
 IR Inten    --     18.6283                37.1322                17.9353

                     55                     56                     57
                      A                      A                      A
 Frequencies --   1020.0007              1048.2548              1061.1969
 Red. masses --      2.8497                 3.0820                 2.3193
 Frc consts  --      1.7468                 1.9954                 1.5389
 IR Inten    --     34.6546               216.0294                35.8466

                     58                     59                     60
                      A                      A                      A
 Frequencies --   1064.6950              1075.1629              1076.9961
 Red. masses --      3.5133                 2.1778                 1.9930
 Frc consts  --      2.3464                 1.4833                 1.3620
 IR Inten    --     59.3827               164.2935               120.1851

                     61                     62                     63
                      A                      A                      A
 Frequencies --   1084.4119              1091.4952              1093.5665
 Red. masses --      2.1815                 3.1479                 2.6811
 Frc consts  --      1.5114                 2.2096                 1.8891
 IR Inten    --    108.8166                 9.5660                24.4632

                     64                     65                     66
                      A                      A                      A
 Frequencies --   1095.5360              1104.4196              1117.6010
 Red. masses --      2.5685                 2.5860                 2.0014
 Frc consts  --      1.8163                 1.8584                 1.4729
 IR Inten    --    117.0007               110.9587                39.6340

                     67                     68                     69
                      A                      A                      A
 Frequencies --   1120.3903              1123.9902              1127.0214
 Red. masses --      1.6363                 2.4403                 1.7667
 Frc consts  --      1.2102                 1.8164                 1.3222
 IR Inten    --     21.3321                 2.9836                 5.0854

                     70                     71                     72
                      A                      A                      A
 Frequencies --   1130.4184              1144.3137              1148.3508
 Red. masses --      2.1119                 2.0769                 1.6380
 Frc consts  --      1.5900                 1.6023                 1.2727
 IR Inten    --     40.6005                98.8768                70.2281

                     73                     74                     75
                      A                      A                      A
 Frequencies --   1154.5410              1161.9483              1165.3947
 Red. masses --      1.4932                 2.1030                 1.2797
 Frc consts  --      1.1727                 1.6729                 1.0240
 IR Inten    --     11.6180                18.6419                 0.5499

                     76                     77                     78
                      A                      A                      A
 Frequencies --   1169.9274              1171.9603              1173.9113
 Red. masses --      1.6110                 1.5005                 1.6560
 Frc consts  --      1.2991                 1.2143                 1.3445
 IR Inten    --     69.7198                10.1413                 8.8362

                     79                     80                     81
                      A                      A                      A
 Frequencies --   1179.6834              1189.3394              1194.0150
 Red. masses --      1.3885                 1.5365                 1.9713
 Frc consts  --      1.1385                 1.2806                 1.6559
 IR Inten    --     28.6511                25.1215                37.3566

                     82                     83                     84
                      A                      A                      A
 Frequencies --   1196.3259              1199.6001              1207.8517
 Red. masses --      1.2560                 1.2704                 1.2779
 Frc consts  --      1.0591                 1.0771                 1.0984
 IR Inten    --     12.5105                 7.5758                 6.7727

                     85                     86                     87
                      A                      A                      A
 Frequencies --   1216.5364              1221.1123              1222.9317
 Red. masses --      1.7164                 1.6333                 1.3065
 Frc consts  --      1.4966                 1.4349                 1.1512
 IR Inten    --     16.4690                24.4667                26.0221

                     88                     89                     90
                      A                      A                      A
 Frequencies --   1229.0749              1234.1155              1239.9109
 Red. masses --      1.5749                 1.5285                 1.6395
 Frc consts  --      1.4017                 1.3716                 1.4850
 IR Inten    --     66.0565                53.2991                14.5850

                     91                     92                     93
                      A                      A                      A
 Frequencies --   1243.2416              1246.6624              1251.2832
 Red. masses --      1.4299                 1.3855                 1.5917
 Frc consts  --      1.3022                 1.2687                 1.4683
 IR Inten    --     58.6073                 4.3894                46.2309

                     94                     95                     96
                      A                      A                      A
 Frequencies --   1252.7981              1260.6518              1264.4608
 Red. masses --      1.2305                 1.4887                 1.2350
 Frc consts  --      1.1379                 1.3940                 1.1634
 IR Inten    --      3.2063                23.7965                10.0924

                     97                     98                     99
                      A                      A                      A
 Frequencies --   1272.1028              1273.8916              1278.6333
 Red. masses --      1.4497                 1.4455                 1.3862
 Frc consts  --      1.3822                 1.3821                 1.3353
 IR Inten    --      5.7088                35.8579                 1.6244

                    100                    101                    102
                      A                      A                      A
 Frequencies --   1332.3707              1339.4014              1343.4004
 Red. masses --      1.6368                 1.6118                 1.5421
 Frc consts  --      1.7119                 1.7037                 1.6398
 IR Inten    --      3.6356                 1.2198                42.4577

                    103                    104                    105
                      A                      A                      A
 Frequencies --   1345.1760              1347.6766              1358.0346
 Red. masses --      1.9122                 1.6901                 1.6735
 Frc consts  --      2.0387                 1.8086                 1.8185
 IR Inten    --      8.6929                 2.8511                19.7742

                    106                    107                    108
                      A                      A                      A
 Frequencies --   1369.9174              1370.3098              2490.3126
 Red. masses --      1.2264                 1.8025                 1.0569
 Frc consts  --      1.3561                 1.9942                 3.8619
 IR Inten    --      8.3248                23.6445               259.4187

                    109                    110                    111
                      A                      A                      A
 Frequencies --   2512.4955              2533.8145              2538.9524
 Red. masses --      1.0541                 1.0544                 1.0547
 Frc consts  --      3.9206                 3.9885                 4.0058
 IR Inten    --    225.3174                70.4429               106.3368

                    112                    113                    114
                      A                      A                      A
 Frequencies --   2541.4882              2541.9119              2544.6172
 Red. masses --      1.0548                 1.0547                 1.0550
 Frc consts  --      4.0142                 4.0152                 4.0249
 IR Inten    --    126.6300               737.8713               158.7270

                    115                    116                    117
                      A                      A                      A
 Frequencies --   2551.1857              2614.2031              2625.5610
 Red. masses --      1.0523                 1.0641                 1.0856
 Frc consts  --      4.0353                 4.2848                 4.4092
 IR Inten    --    284.3323               139.0674                36.7674

                    118                    119                    120
                      A                      A                      A
 Frequencies --   2635.5866              2649.8749              2653.6923
 Red. masses --      1.0644                 1.0624                 1.0816
 Frc consts  --      4.3564                 4.3952                 4.4876
 IR Inten    --    137.4146                39.1990                42.8119

                    121                    122                    123
                      A                      A                      A
 Frequencies --   2658.0181              2662.3236              2665.5744
 Red. masses --      1.0640                 1.0591                 1.0648
 Frc consts  --      4.4289                 4.4229                 4.4576
 IR Inten    --    105.7415                30.0913                57.8057

                    124                    125                    126
                      A                      A                      A
 Frequencies --   2672.6662              2675.4456              2678.7481
 Red. masses --      1.0677                 1.0656                 1.0690
 Frc consts  --      4.4935                 4.4942                 4.5194
 IR Inten    --      6.7923               117.6024                30.3660

                    127                    128                    129
                      A                      A                      A
 Frequencies --   2684.8009              2693.1428              2717.6733
 Red. masses --      1.0740                 1.0474                 1.0451
 Frc consts  --      4.5614                 4.4757                 4.5476
 IR Inten    --    192.9178                65.6869                44.9536

 - Thermochemistry -
 -------------------
 Temperature   298.150 Kelvin.  Pressure   1.00000 Atm.
 Atom     1 has atomic number  8 and mass  15.99491

 Molecular mass:   342.11621 amu.
 Principal axes and moments of inertia in atomic units:
                           1         2         3
     Eigenvalues --  4641.05281********************
           X            1.00000  -0.00120   0.00138
           Y            0.00120   0.99999  -0.00441
           Z           -0.00137   0.00441   0.99999
 This molecule is an asymmetric top.
 Rotational symmetry number  1.
 Warning -- assumption of classical behavior for rotation
           may cause significant error
 Rotational temperatures (Kelvin)      0.01866     0.00857     0.00737
 Rotational constants (GHZ):           0.38886     0.17854     0.15355
    1 imaginary frequencies ignored.
 Zero-point vibrational energy     849540.3 (Joules/Mol)
                                  203.04501 (Kcal/Mol)
 Warning -- explicit consideration of  43 degrees of freedom as
           vibrations may cause significant error
 Vibrational temperatures:     35.61    38.86    62.51    82.57    88.80
          (Kelvin)             98.82   104.33   155.07   158.33   186.70
                              189.89   220.65   232.08   282.05   328.24
                              339.16   346.96   355.12   370.98   389.79
                              401.28   405.00   443.39   452.79   462.41
                              483.27   503.69   524.12   548.98   560.30
                              568.08   576.93   592.33   607.18   636.95
                              663.94   686.15   717.88   731.50   755.24
                              784.76   840.84   867.32   913.83   982.49
                             1070.90  1262.67  1266.46  1287.75  1387.38
                             1395.75  1439.27  1447.75  1467.55  1508.20
                             1526.83  1531.86  1546.92  1549.56  1560.23
                             1570.42  1573.40  1576.23  1589.01  1607.98
                             1611.99  1617.17  1621.53  1626.42  1646.41
                             1652.22  1661.13  1671.78  1676.74  1683.26
                             1686.19  1689.00  1697.30  1711.19  1717.92
                             1721.25  1725.96  1737.83  1750.32  1756.91
                             1759.53  1768.36  1775.62  1783.96  1788.75
                             1793.67  1800.32  1802.50  1813.80  1819.28
                             1830.27  1832.85  1839.67  1916.98  1927.10
                             1932.85  1935.41  1939.01  1953.91  1971.01
                             1971.57  3583.00  3614.92  3645.59  3652.99
                             3656.63  3657.24  3661.14  3670.59  3761.26
                             3777.60  3792.02  3812.58  3818.07  3824.30
                             3830.49  3835.17  3845.37  3849.37  3854.12
                             3862.83  3874.83  3910.13

 Zero-point correction=                           0.323573 (Hartree/Particle)
 Thermal correction to Energy=                    0.348428
 Thermal correction to Enthalpy=                  0.349372
 Thermal correction to Gibbs Free Energy=         0.268993
 Sum of electronic and zero-point Energies=             -0.466229
 Sum of electronic and thermal Energies=                -0.441374
 Sum of electronic and thermal Enthalpies=              -0.440430
 Sum of electronic and thermal Free Energies=           -0.520808

                     E (Thermal)             CV                S
                      KCal/Mol        Cal/Mol-Kelvin    Cal/Mol-Kelvin
 Total                  218.642             93.719            169.171
 Electronic               0.000              0.000              0.000
 Translational            0.889              2.981             43.384
 Rotational               0.889              2.981             34.666
 Vibrational            216.864             87.758             91.121
 Vibration     1          0.593              1.985              6.211
 Vibration     2          0.593              1.984              6.038
 Vibration     3          0.595              1.980              5.096
 Vibration     4          0.596              1.975              4.545
 Vibration     5          0.597              1.973              4.401
 Vibration     6          0.598              1.969              4.191
 Vibration     7          0.599              1.967              4.084
 Vibration     8          0.606              1.943              3.309
 Vibration     9          0.606              1.941              3.268
 Vibration    10          0.612              1.924              2.950
 Vibration    11          0.612              1.921              2.917
 Vibration    12          0.619              1.899              2.630
 Vibration    13          0.622              1.890              2.534
 Vibration    14          0.636              1.845              2.170
 Vibration    15          0.651              1.798              1.894
 Vibration    16          0.655              1.786              1.835
 Vibration    17          0.658              1.777              1.794
 Vibration    18          0.661              1.768              1.753
 Vibration    19          0.667              1.750              1.676
 Vibration    20          0.675              1.727              1.590
 Vibration    21          0.679              1.713              1.540
 Vibration    22          0.681              1.708              1.525
 Vibration    23          0.698              1.658              1.372
 Vibration    24          0.702              1.646              1.337
 Vibration    25          0.707              1.633              1.303
 Vibration    26          0.717              1.604              1.232
 Vibration    27          0.727              1.575              1.166
 Vibration    28          0.738              1.546              1.104
 Vibration    29          0.751              1.509              1.033
 Vibration    30          0.757              1.493              1.002
 Vibration    31          0.762              1.481              0.982
 Vibration    32          0.767              1.468              0.959
 Vibration    33          0.776              1.445              0.921
 Vibration    34          0.784              1.422              0.885
 Vibration    35          0.802              1.377              0.818
 Vibration    36          0.819              1.336              0.762
 Vibration    37          0.833              1.301              0.718
 Vibration    38          0.854              1.252              0.661
 Vibration    39          0.864              1.231              0.637
 Vibration    40          0.880              1.195              0.599
 Vibration    41          0.901              1.150              0.554
 Vibration    42          0.941              1.065              0.477
 Vibration    43          0.961              1.026              0.445

                           ! Non-Optimized Parameters !
 Normal termination of Gaussian 16 at Tue Jun 22 14:17:46 2021.
