 Gaussian 16, Revision B.01,
 Gaussian 16:  ES64L-G16RevB.01 20-Dec-2017

 --------------------------------------
 #P pm6 opt=loose freq int=(grid=99590)
 --------------------------------------

 ------------
 offspring-11
 ------------
 Symbolic Z-matrix:
 Charge =  0 Multiplicity = 1

 SCF Done:  E(RPM6) = -0.568015036751     A.U. after   14 cycles
 SCF Done:  E(RPM6) = -0.759101148750     A.U. after   13 cycles
 SCF Done:  E(RPM6) = -0.774018860356     A.U. after   13 cycles
 SCF Done:  E(RPM6) = -0.784532284675     A.U. after   13 cycles
 SCF Done:  E(RPM6) = -0.780581806007     A.U. after   13 cycles
 SCF Done:  E(RPM6) = -0.784381104653     A.U. after   12 cycles
 SCF Done:  E(RPM6) = -0.786653323804     A.U. after   11 cycles
 SCF Done:  E(RPM6) = -0.789146239392     A.U. after   12 cycles
 SCF Done:  E(RPM6) = -0.790571755594     A.U. after   12 cycles
 SCF Done:  E(RPM6) = -0.791511201670     A.U. after   12 cycles
 SCF Done:  E(RPM6) = -0.793712348280     A.U. after   12 cycles
 SCF Done:  E(RPM6) = -0.794074593869     A.U. after   11 cycles
 SCF Done:  E(RPM6) = -0.794426069036     A.U. after   11 cycles
 SCF Done:  E(RPM6) = -0.794722774157     A.U. after   11 cycles
 SCF Done:  E(RPM6) = -0.794911753292     A.U. after   11 cycles
 SCF Done:  E(RPM6) = -0.795035595653     A.U. after   11 cycles
 SCF Done:  E(RPM6) = -0.795097165091     A.U. after   11 cycles
 SCF Done:  E(RPM6) = -0.795140349208     A.U. after   10 cycles
 SCF Done:  E(RPM6) = -0.795152374147     A.U. after   10 cycles
 Optimization completed.
    -- Stationary point found.
 Normal termination of Gaussian 16 at Tue Jun 22 14:22:10 2021.

 -------------------------------------------------------------
 #P Geom=AllCheck Guess=TCheck SCRF=Check GenChk RPM6/ZDO Freq
 -------------------------------------------------------------

 Structure from the checkpoint file:  "/scratch-data/gaussian/Gau-13583.chk"
 ------------
 offspring-11
 ------------
 Charge =  0 Multiplicity = 1

                         Standard orientation:
 ---------------------------------------------------------------------
 Center     Atomic      Atomic             Coordinates (Angstroms)
 Number     Number       Type             X           Y           Z
 ---------------------------------------------------------------------
      1          8           0       -3.120143    0.527042    1.939303
      2          6           0       -3.729359    0.462819    0.643166
      3          6           0       -3.568603   -0.966004    0.074918
      4          8           0       -3.976989   -1.806767    1.160833
      5          6           0       -2.087452   -1.234763   -0.267856
      6          6           0       -1.631101   -0.248855   -1.360770
      7          8           0       -2.439655    0.919847   -1.427733
      8          6           0       -3.003228    1.506160   -0.234396
      9          6           0       -1.901785    2.271099    0.512443
     10          8           0       -1.053198    2.929757   -0.445754
     11          8           0        3.994077    1.648730   -0.204702
     12          6           0        3.024324    0.686250    0.245570
     13          6           0        1.633032    1.107463   -0.277736
     14          6           0        0.597131   -0.038257   -0.204725
     15          6           0        1.175172   -1.453303   -0.478810
     16          8           0        2.518825   -1.661291   -0.035186
     17          6           0        3.488727   -0.642075   -0.374821
     18          6           0        4.793159   -1.183799    0.247976
     19          8           0        5.419412   -0.236755    1.105958
     20          8           0        0.459539   -2.392746    0.320550
     21          8           0       -0.280337    0.231555   -1.318774
     22          8           0        1.263612    2.141135    0.627770
     23          8           0       -2.066064   -2.551789   -0.822067
     24          1           0       -4.808315    0.713747    0.766257
     25          1           0       -4.228351   -1.161348   -0.799727
     26          1           0       -3.754701   -2.747687    0.947336
     27          1           0       -1.456714   -1.192663    0.653215
     28          1           0       -1.715004   -0.650899   -2.402339
     29          1           0       -3.732529    2.211733   -0.707369
     30          1           0       -2.306078    3.088664    1.136776
     31          1           0       -1.272922    1.608622    1.141255
     32          1           0       -0.942347    2.328504   -1.249657
     33          1           0        3.036580    0.655114    1.362126
     34          1           0        1.689272    1.508330   -1.317965
     35          1           0        0.043703   -0.005001    0.761926
     36          1           0        1.059196   -1.774814   -1.534855
     37          1           0        3.553691   -0.569593   -1.482223
     38          1           0        4.580352   -2.042874    0.920474
     39          1           0        5.506972   -1.493317   -0.536583
     40          1           0        5.555427    0.626774    0.629345
     41          1           0        0.527201    2.727571    0.232625
     42          1           0        3.763018    2.535550    0.170925
     43          1           0       -1.201227   -2.995989   -0.597442
     44          1           0        1.023338   -2.702901    1.076461
     45          1           0       -3.413275   -0.257681    2.478105
 ---------------------------------------------------------------------

 SCF Done:  E(RPM6) = -0.795152374135     A.U. after    2 cycles

 The electronic state is 1-A.
 Alpha  occ. eigenvalues --   -1.17706  -1.16435  -1.14660  -1.14104  -1.12757
 Alpha  occ. eigenvalues --   -1.11657  -1.10733  -1.10336  -1.09325  -1.09132
 Alpha  occ. eigenvalues --   -1.07247  -1.02924  -1.00692  -0.99549  -0.98621
 Alpha  occ. eigenvalues --   -0.92570  -0.91690  -0.88556  -0.85346  -0.83593
 Alpha  occ. eigenvalues --   -0.82386  -0.77286  -0.75511  -0.74043  -0.72189
 Alpha  occ. eigenvalues --   -0.70976  -0.70005  -0.68711  -0.68218  -0.66589
 Alpha  occ. eigenvalues --   -0.64964  -0.64828  -0.64301  -0.63158  -0.62272
 Alpha  occ. eigenvalues --   -0.61609  -0.60835  -0.60260  -0.59552  -0.58685
 Alpha  occ. eigenvalues --   -0.56641  -0.56277  -0.55486  -0.55125  -0.54110
 Alpha  occ. eigenvalues --   -0.53095  -0.51909  -0.51376  -0.50253  -0.50141
 Alpha  occ. eigenvalues --   -0.49512  -0.49020  -0.48726  -0.48292  -0.47219
 Alpha  occ. eigenvalues --   -0.47006  -0.45880  -0.45266  -0.43380  -0.42780
 Alpha  occ. eigenvalues --   -0.42475  -0.41632  -0.41472  -0.40732  -0.40439
 Alpha  occ. eigenvalues --   -0.39550  -0.39334  -0.38973
 Alpha virt. eigenvalues --    0.00928   0.02284   0.02979   0.04280   0.05166
 Alpha virt. eigenvalues --    0.05506   0.06128   0.07058   0.07261   0.07277
 Alpha virt. eigenvalues --    0.08068   0.08328   0.08601   0.08876   0.09512

 Mulliken charges:
               1
     1  O   -0.559887
     2  C    0.072296
     3  C    0.083837
     4  O   -0.559583
     5  C   -0.012576
     6  C    0.318541
     7  O   -0.469498
     8  C    0.066822
     9  C   -0.044200
    10  O   -0.558379
    11  O   -0.561612
    12  C    0.075817
    13  C    0.087543
    14  C   -0.020470
    15  C    0.345657
    16  O   -0.512951
    17  C    0.077417
    18  C   -0.018393
    19  O   -0.538019
    20  O   -0.595736
    21  O   -0.509236
    22  O   -0.593600
    23  O   -0.550620
    24  H    0.146506
    25  H    0.153741
    26  H    0.340021
    27  H    0.173067
    28  H    0.175957
    29  H    0.167170
    30  H    0.162830
    31  H    0.155813
    32  H    0.345086
    33  H    0.171896
    34  H    0.153262
    35  H    0.170574
    36  H    0.147568
    37  H    0.140592
    38  H    0.170327
    39  H    0.129994
    40  H    0.330855
    41  H    0.359011
    42  H    0.338183
    43  H    0.343434
    44  H    0.356196
    45  H    0.344744
 Sum of Mulliken charges =   0.00000

 Dipole moment (field-independent basis, Debye):
    X=             -1.7397    Y=             -1.8778    Z=             -1.2191  Tot=              2.8353
 N-N= 1.399449185316D+03 E-N=-2.400917611182D+03  KE=-3.045687446336D+02
  Exact polarizability: 154.295   2.182 133.084   1.756  -0.240 103.675
 Approx polarizability:  99.441   2.404  98.923   1.677  -1.331  84.231
 Leave Link  601 at Tue Jun 22 14:22:11 2021, MaxMem=  2147483648 cpu:               0.2 elap:               0.0
 (Enter /home/matma/Programs/gaussian/G16_x86_SSE4/tar/g16/l701.exe)
 ... and contract with generalized density number  0.
 Compute integral second derivatives.
 Leave Link  701 at Tue Jun 22 14:22:11 2021, MaxMem=  2147483648 cpu:               0.6 elap:               0.1
 (Enter /home/matma/Programs/gaussian/G16_x86_SSE4/tar/g16/l702.exe)
 L702 exits ... SP integral derivatives will be done elsewhere.

                      1                      2                      3
                      A                      A                      A
 Frequencies --     22.9146                27.5984                44.6631
 Red. masses --      6.2955                 4.8919                 5.5097
 Frc consts  --      0.0019                 0.0022                 0.0065
 IR Inten    --      0.1733                 0.6745                 0.2627

                      4                      5                      6
                      A                      A                      A
 Frequencies --     54.1778                75.4556                86.7869
 Red. masses --      6.0583                 5.9156                 5.8866
 Frc consts  --      0.0105                 0.0198                 0.0261
 IR Inten    --      4.2791                 4.4771                 1.5708

                      7                      8                      9
                      A                      A                      A
 Frequencies --     92.4642               104.7595               106.0537
 Red. masses --      4.6848                 4.6979                 4.5946
 Frc consts  --      0.0236                 0.0304                 0.0304
 IR Inten    --      0.6121                 4.0031                 3.2641

                     10                     11                     12
                      A                      A                      A
 Frequencies --    133.2977               150.5677               164.2762
 Red. masses --      5.8611                 3.8215                 6.4407
 Frc consts  --      0.0614                 0.0510                 0.1024
 IR Inten    --      9.8171                 5.2881                 5.8427

                     13                     14                     15
                      A                      A                      A
 Frequencies --    185.4725               199.4574               212.0582
 Red. masses --      6.3292                 5.8110                 5.4477
 Frc consts  --      0.1283                 0.1362                 0.1443
 IR Inten    --      3.1184                20.4636                 0.3294

                     16                     17                     18
                      A                      A                      A
 Frequencies --    228.3435               241.1371               244.2673
 Red. masses --      5.7783                 1.4673                 4.3205
 Frc consts  --      0.1775                 0.0503                 0.1519
 IR Inten    --      4.9510                94.7858                 8.3037

                     19                     20                     21
                      A                      A                      A
 Frequencies --    266.9664               283.8171               287.1894
 Red. masses --      5.4418                 5.6204                 2.7551
 Frc consts  --      0.2285                 0.2667                 0.1339
 IR Inten    --      7.7865                 4.9383                70.5834

                     22                     23                     24
                      A                      A                      A
 Frequencies --    302.8672               330.2552               335.7313
 Red. masses --      6.0063                 3.4058                 1.4670
 Frc consts  --      0.3246                 0.2189                 0.0974
 IR Inten    --     15.6437                30.4119               110.3248

                     25                     26                     27
                      A                      A                      A
 Frequencies --    359.0942               372.2218               373.5928
 Red. masses --      6.6058                 1.6132                 1.7435
 Frc consts  --      0.5019                 0.1317                 0.1434
 IR Inten    --      4.7032               150.4360                29.8274

                     28                     29                     30
                      A                      A                      A
 Frequencies --    380.6356               391.5532               396.1770
 Red. masses --      3.1455                 1.9604                 3.1623
 Frc consts  --      0.2685                 0.1771                 0.2924
 IR Inten    --     17.2568                83.5340                39.3409

                     31                     32                     33
                      A                      A                      A
 Frequencies --    401.9295               421.6750               434.6278
 Red. masses --      3.3777                 1.7478                 2.6677
 Frc consts  --      0.3215                 0.1831                 0.2969
 IR Inten    --     28.8122                44.2090                17.0804

                     34                     35                     36
                      A                      A                      A
 Frequencies --    461.3846               468.3325               490.9164
 Red. masses --      3.6564                 2.9143                 3.3249
 Frc consts  --      0.4586                 0.3766                 0.4721
 IR Inten    --      1.1035                11.6952                58.6594

                     37                     38                     39
                      A                      A                      A
 Frequencies --    505.4113               523.7549               529.2394
 Red. masses --      2.1447                 1.4512                 2.5888
 Frc consts  --      0.3228                 0.2345                 0.4272
 IR Inten    --    122.1758                90.3018                10.0752

                     40                     41                     42
                      A                      A                      A
 Frequencies --    541.0383               572.6594               582.9615
 Red. masses --      1.7752                 3.4655                 3.7262
 Frc consts  --      0.3062                 0.6696                 0.7461
 IR Inten    --     47.7106                26.5483                27.4168

                     43                     44                     45
                      A                      A                      A
 Frequencies --    610.9754               616.3714               624.3436
 Red. masses --      4.6941                 2.6360                 1.3243
 Frc consts  --      1.0324                 0.5900                 0.3042
 IR Inten    --     17.9770                 2.4889               146.9461

                     46                     47                     48
                      A                      A                      A
 Frequencies --    658.0047               737.0776               837.1601
 Red. masses --      5.0967                 3.8735                 2.7496
 Frc consts  --      1.3002                 1.2399                 1.1354
 IR Inten    --      7.4901                13.1908                34.8687

                     49                     50                     51
                      A                      A                      A
 Frequencies --    875.4016               936.5842               964.0555
 Red. masses --      1.8101                 2.2200                 3.9687
 Frc consts  --      0.8173                 1.1473                 2.1732
 IR Inten    --     14.4224                17.3741                14.3078

                     52                     53                     54
                      A                      A                      A
 Frequencies --    983.1523               988.6054              1006.2141
 Red. masses --      1.9211                 2.8399                 3.2470
 Frc consts  --      1.0940                 1.6353                 1.9370
 IR Inten    --     18.1489                20.6007                 3.4390

                     55                     56                     57
                      A                      A                      A
 Frequencies --   1008.7669              1034.9048              1047.9532
 Red. masses --      3.5939                 2.9705                 2.4615
 Frc consts  --      2.1548                 1.8745                 1.5927
 IR Inten    --    192.1182               113.5242               119.4258

                     58                     59                     60
                      A                      A                      A
 Frequencies --   1060.8107              1065.3820              1081.9663
 Red. masses --      2.6681                 2.1617                 1.8504
 Frc consts  --      1.7690                 1.4457                 1.2763
 IR Inten    --    143.4985               217.5522                18.8361

                     61                     62                     63
                      A                      A                      A
 Frequencies --   1086.0788              1091.4160              1097.4875
 Red. masses --      1.9939                 1.8357                 2.5738
 Frc consts  --      1.3857                 1.2884                 1.8265
 IR Inten    --     33.1036                36.0119                44.8978

                     64                     65                     66
                      A                      A                      A
 Frequencies --   1101.1036              1105.6376              1110.9686
 Red. masses --      2.5793                 1.8321                 2.1774
 Frc consts  --      1.8425                 1.3195                 1.5834
 IR Inten    --     85.1609               121.0266                 5.3661

                     67                     68                     69
                      A                      A                      A
 Frequencies --   1115.6573              1120.7017              1135.0999
 Red. masses --      2.3012                 2.5983                 2.1764
 Frc consts  --      1.6876                 1.9227                 1.6521
 IR Inten    --     23.1295                40.0413                50.0471

                     70                     71                     72
                      A                      A                      A
 Frequencies --   1137.8732              1141.6941              1145.3621
 Red. masses --      2.2487                 1.9981                 1.5654
 Frc consts  --      1.7154                 1.5345                 1.2099
 IR Inten    --     49.5127                21.2987                16.0598

                     73                     74                     75
                      A                      A                      A
 Frequencies --   1149.2442              1157.9216              1163.5620
 Red. masses --      1.7777                 1.4358                 1.7383
 Frc consts  --      1.3833                 1.1343                 1.3866
 IR Inten    --     26.7587                39.2878                19.6442

                     76                     77                     78
                      A                      A                      A
 Frequencies --   1167.3286              1175.0299              1178.7351
 Red. masses --      1.4800                 1.3731                 1.6122
 Frc consts  --      1.1882                 1.1170                 1.3198
 IR Inten    --      2.3555                16.8434                44.9347

                     79                     80                     81
                      A                      A                      A
 Frequencies --   1183.1220              1187.7996              1191.7027
 Red. masses --      1.5578                 1.6009                 1.5745
 Frc consts  --      1.2848                 1.3308                 1.3175
 IR Inten    --      9.7209                49.7801                 3.4973

                     82                     83                     84
                      A                      A                      A
 Frequencies --   1196.2619              1196.5801              1199.9534
 Red. masses --      1.2475                 1.3043                 1.6237
 Frc consts  --      1.0518                 1.1003                 1.3775
 IR Inten    --     12.7767                 5.3889                20.0604

                     85                     86                     87
                      A                      A                      A
 Frequencies --   1205.8893              1207.9199              1215.4383
 Red. masses --      1.3644                 1.3550                 1.8600
 Frc consts  --      1.1690                 1.1648                 1.6189
 IR Inten    --     62.3523                15.2641                69.1452

                     88                     89                     90
                      A                      A                      A
 Frequencies --   1221.6883              1225.6264              1235.5283
 Red. masses --      1.4709                 1.5381                 1.7675
 Frc consts  --      1.2934                 1.3613                 1.5897
 IR Inten    --      7.7613                18.7094                 2.4613

                     91                     92                     93
                      A                      A                      A
 Frequencies --   1239.0284              1244.9136              1246.1774
 Red. masses --      1.7071                 1.5661                 1.5162
 Frc consts  --      1.5441                 1.4300                 1.3872
 IR Inten    --     13.8878                22.9331                33.6903

                     94                     95                     96
                      A                      A                      A
 Frequencies --   1249.0426              1256.2932              1262.8816
 Red. masses --      1.5329                 1.4213                 1.2642
 Frc consts  --      1.4090                 1.3216                 1.1880
 IR Inten    --     56.3381                 6.4101                 8.9623

                     97                     98                     99
                      A                      A                      A
 Frequencies --   1263.2366              1276.4572              1279.7782
 Red. masses --      1.2726                 1.6962                 1.3635
 Frc consts  --      1.1965                 1.6283                 1.3158
 IR Inten    --     19.2491                 8.1801                 0.3422

                    100                    101                    102
                      A                      A                      A
 Frequencies --   1319.7132              1333.5827              1342.6257
 Red. masses --      1.6827                 1.6299                 1.7199
 Frc consts  --      1.7267                 1.7079                 1.8267
 IR Inten    --     18.3685                49.2690                33.1107

                    103                    104                    105
                      A                      A                      A
 Frequencies --   1356.4955              1358.0138              1368.9542
 Red. masses --      1.8605                 1.5674                 1.5855
 Frc consts  --      2.0171                 1.7031                 1.7506
 IR Inten    --     30.6268                44.6397                27.3765

                    106                    107                    108
                      A                      A                      A
 Frequencies --   1369.9164              1399.4763              2301.7263
 Red. masses --      1.2099                 1.2148                 1.0604
 Frc consts  --      1.3378                 1.4018                 3.3101
 IR Inten    --     14.3197                43.2537               782.4403

                    109                    110                    111
                      A                      A                      A
 Frequencies --   2486.5327              2491.3615              2505.5560
 Red. masses --      1.0543                 1.0558                 1.0542
 Frc consts  --      3.8407                 3.8610                 3.8991
 IR Inten    --    256.4558               351.5046               249.9730

                    112                    113                    114
                      A                      A                      A
 Frequencies --   2520.6700              2523.4167              2536.8954
 Red. masses --      1.0545                 1.0529                 1.0545
 Frc consts  --      3.9474                 3.9503                 3.9986
 IR Inten    --     65.8670               425.4562               392.5922

                    115                    116                    117
                      A                      A                      A
 Frequencies --   2542.7429              2636.2368              2640.2621
 Red. masses --      1.0546                 1.0631                 1.0784
 Frc consts  --      4.0175                 4.3529                 4.4293
 IR Inten    --    250.9528                28.9716                14.6547

                    118                    119                    120
                      A                      A                      A
 Frequencies --   2652.2231              2652.7291              2658.5167
 Red. masses --      1.0626                 1.0808                 1.0601
 Frc consts  --      4.4041                 4.4813                 4.4144
 IR Inten    --     73.8991                52.4611                34.4458

                    121                    122                    123
                      A                      A                      A
 Frequencies --   2661.5419              2663.9632              2667.3328
 Red. masses --      1.0658                 1.0675                 1.0661
 Frc consts  --      4.4483                 4.4634                 4.4688
 IR Inten    --     73.0373                48.4376                27.2619

                    124                    125                    126
                      A                      A                      A
 Frequencies --   2670.9001              2677.0543              2682.9897
 Red. masses --      1.0705                 1.0680                 1.0680
 Frc consts  --      4.4996                 4.5096                 4.5294
 IR Inten    --     42.6334                66.1863               187.7484

                    127                    128                    129
                      A                      A                      A
 Frequencies --   2684.1739              2715.4276              2720.8717
 Red. masses --      1.0733                 1.0448                 1.0489
 Frc consts  --      4.5562                 4.5390                 4.5753
 IR Inten    --    151.3775                45.7657                48.6461

 - Thermochemistry -
 -------------------
 Temperature   298.150 Kelvin.  Pressure   1.00000 Atm.
 Atom     1 has atomic number  8 and mass  15.99491

 Molecular mass:   342.11621 amu.
 Principal axes and moments of inertia in atomic units:
                           1         2         3
     Eigenvalues --  3883.77532********************
           X            0.99999  -0.00286  -0.00273
           Y            0.00286   0.99999   0.00280
           Z            0.00272  -0.00281   0.99999
 This molecule is an asymmetric top.
 Rotational symmetry number  1.
 Warning -- assumption of classical behavior for rotation
           may cause significant error
 Rotational temperatures (Kelvin)      0.02230     0.00792     0.00666
 Rotational constants (GHZ):           0.46469     0.16508     0.13886
 Zero-point vibrational energy     854334.9 (Joules/Mol)
                                  204.19093 (Kcal/Mol)
 Warning -- explicit consideration of  44 degrees of freedom as
           vibrations may cause significant error
 Vibrational temperatures:     32.97    39.71    64.26    77.95   108.56
          (Kelvin)            124.87   133.04   150.73   152.59   191.79
                              216.63   236.36   266.85   286.97   305.10
                              328.54   346.94   351.45   384.11   408.35
                              413.20   435.76   475.16   483.04   516.66
                              535.54   537.52   547.65   563.36   570.01
                              578.29   606.70   625.33   663.83   673.83
                              706.32   727.17   753.57   761.46   778.43
                              823.93   838.75   879.06   886.82   898.29
                              946.72  1060.49  1204.49  1259.51  1347.54
                             1387.06  1414.54  1422.38  1447.72  1451.39
                             1489.00  1507.77  1526.27  1532.85  1556.71
                             1562.63  1570.30  1579.04  1584.24  1590.77
                             1598.44  1605.18  1612.44  1633.16  1637.15
                             1642.64  1647.92  1653.51  1665.99  1674.11
                             1679.53  1690.61  1695.94  1702.25  1708.98
                             1714.59  1721.15  1721.61  1726.47  1735.01
                             1737.93  1748.74  1757.74  1763.40  1777.65
                             1782.69  1791.15  1792.97  1797.09  1807.53
                             1817.00  1817.52  1836.54  1841.32  1898.77
                             1918.73  1931.74  1951.69  1953.88  1969.62
                             1971.00  2013.53  3311.67  3577.57  3584.51
                             3604.94  3626.68  3630.63  3650.03  3658.44
                             3792.96  3798.75  3815.96  3816.69  3825.01
                             3829.37  3832.85  3837.70  3842.83  3851.68
                             3860.22  3861.93  3906.89  3914.73

 Zero-point correction=                           0.325399 (Hartree/Particle)
 Thermal correction to Energy=                    0.349816
 Thermal correction to Enthalpy=                  0.350760
 Thermal correction to Gibbs Free Energy=         0.271752
 Sum of electronic and zero-point Energies=             -0.469753
 Sum of electronic and thermal Energies=                -0.445337
 Sum of electronic and thermal Enthalpies=              -0.444393
 Sum of electronic and thermal Free Energies=           -0.523401

                     E (Thermal)             CV                S
                      KCal/Mol        Cal/Mol-Kelvin    Cal/Mol-Kelvin
 Total                  219.513             93.803            166.286
 Electronic               0.000              0.000              0.000
 Translational            0.889              2.981             43.384
 Rotational               0.889              2.981             34.666
 Vibrational            217.735             87.841             88.236
 Vibration     1          0.593              1.985              6.364
 Vibration     2          0.593              1.984              5.995
 Vibration     3          0.595              1.980              5.041
 Vibration     4          0.596              1.976              4.659
 Vibration     5          0.599              1.965              4.006
 Vibration     6          0.601              1.958              3.731
 Vibration     7          0.602              1.955              3.607
 Vibration     8          0.605              1.945              3.364
 Vibration     9          0.605              1.944              3.340
 Vibration    10          0.613              1.920              2.898
 Vibration    11          0.618              1.902              2.665
 Vibration    12          0.623              1.886              2.500
 Vibration    13          0.632              1.860              2.273
 Vibration    14          0.638              1.841              2.138
 Vibration    15          0.643              1.823              2.026
 Vibration    16          0.651              1.798              1.892
 Vibration    17          0.658              1.777              1.794
 Vibration    18          0.660              1.772              1.772
 Vibration    19          0.672              1.734              1.616
 Vibration    20          0.682              1.704              1.511
 Vibration    21          0.684              1.698              1.490
 Vibration    22          0.694              1.668              1.401
 Vibration    23          0.713              1.615              1.259
 Vibration    24          0.717              1.604              1.232
 Vibration    25          0.734              1.557              1.126
 Vibration    26          0.744              1.529              1.071
 Vibration    27          0.745              1.526              1.065
 Vibration    28          0.750              1.511              1.037
 Vibration    29          0.759              1.488              0.994
 Vibration    30          0.763              1.478              0.977
 Vibration    31          0.768              1.466              0.956
 Vibration    32          0.784              1.423              0.886
 Vibration    33          0.795              1.395              0.844
 Vibration    34          0.819              1.336              0.762
 Vibration    35          0.826              1.320              0.742
 Vibration    36          0.847              1.270              0.681
 Vibration    37          0.861              1.238              0.645
 Vibration    38          0.879              1.197              0.601
 Vibration    39          0.884              1.185              0.589
 Vibration    40          0.896              1.159              0.563
 Vibration    41          0.929              1.090              0.499
 Vibration    42          0.940              1.068              0.480
 Vibration    43          0.970              1.009              0.431
 Vibration    44          0.976              0.997              0.422

                           ! Non-Optimized Parameters !
 Normal termination of Gaussian 16 at Tue Jun 22 14:22:11 2021.
