 Gaussian 16, Revision B.01,
 Gaussian 16:  ES64L-G16RevB.01 20-Dec-2017

 --------------------------------------
 #P pm6 opt=loose freq int=(grid=99590)
 --------------------------------------

 ------------
 offspring-15
 ------------
 Symbolic Z-matrix:
 Charge =  0 Multiplicity = 1

 SCF Done:  E(RPM6) = -0.795152453265     A.U. after   14 cycles
 SCF Done:  E(RPM6) = -0.795144801160     A.U. after   10 cycles
 SCF Done:  E(RPM6) = -0.795087131623     A.U. after   10 cycles
 SCF Done:  E(RPM6) = -0.795153540455     A.U. after   10 cycles
 SCF Done:  E(RPM6) = -0.795150760515     A.U. after   10 cycles
 SCF Done:  E(RPM6) = -0.795152443331     A.U. after    9 cycles
 SCF Done:  E(RPM6) = -0.795157024409     A.U. after    9 cycles
 Optimization completed.
    -- Stationary point found.
 Normal termination of Gaussian 16 at Tue Jun 22 14:23:17 2021.

 -------------------------------------------------------------
 #P Geom=AllCheck Guess=TCheck SCRF=Check GenChk RPM6/ZDO Freq
 -------------------------------------------------------------

 Structure from the checkpoint file:  "/scratch-data/gaussian/Gau-9190.chk"
 ------------
 offspring-15
 ------------
 Charge =  0 Multiplicity = 1

                         Standard orientation:
 ---------------------------------------------------------------------
 Center     Atomic      Atomic             Coordinates (Angstroms)
 Number     Number       Type             X           Y           Z
 ---------------------------------------------------------------------
      1          8           0       -3.130719    0.527328    1.937380
      2          6           0       -3.733681    0.458924    0.638563
      3          6           0       -3.566796   -0.970418    0.073154
      4          8           0       -3.973841   -1.810781    1.159912
      5          6           0       -2.084087   -1.234780   -0.266226
      6          6           0       -1.629413   -0.250666   -1.360883
      7          8           0       -2.439827    0.917283   -1.429906
      8          6           0       -3.006720    1.502847   -0.237588
      9          6           0       -1.907484    2.268691    0.511575
     10          8           0       -1.058346    2.929437   -0.444598
     11          8           0        3.994015    1.653715   -0.190822
     12          6           0        3.023306    0.687029    0.247076
     13          6           0        1.633488    1.109919   -0.278544
     14          6           0        0.599038   -0.036809   -0.205280
     15          6           0        1.175967   -1.452410   -0.478339
     16          8           0        2.523926   -1.661224   -0.049377
     17          6           0        3.490021   -0.636092   -0.382188
     18          6           0        4.796776   -1.178510    0.235087
     19          8           0        5.409741   -0.244051    1.116224
     20          8           0        0.468002   -2.388616    0.331672
     21          8           0       -0.279657    0.232207   -1.318596
     22          8           0        1.263627    2.144474    0.625800
     23          8           0       -2.057148   -2.553488   -0.815802
     24          1           0       -4.813976    0.707088    0.756329
     25          1           0       -4.224443   -1.169666   -0.801883
     26          1           0       -3.748292   -2.750999    0.948567
     27          1           0       -1.454943   -1.187280    0.655734
     28          1           0       -1.712512   -0.653929   -2.401900
     29          1           0       -3.735458    2.207865   -0.712148
     30          1           0       -2.313196    3.085211    1.136308
     31          1           0       -1.279055    1.606080    1.140483
     32          1           0       -0.944259    2.327744   -1.248134
     33          1           0        3.031258    0.646922    1.363537
     34          1           0        1.690762    1.510956   -1.318397
     35          1           0        0.046041   -0.003118    0.762428
     36          1           0        1.048417   -1.779285   -1.531944
     37          1           0        3.553325   -0.556998   -1.489281
     38          1           0        4.588644   -2.053652    0.888159
     39          1           0        5.516755   -1.464410   -0.552728
     40          1           0        5.549632    0.627173    0.654789
     41          1           0        0.523877    2.727568    0.230953
     42          1           0        3.755155    2.539272    0.184006
     43          1           0       -1.192968   -2.995808   -0.583072
     44          1           0        1.035065   -2.688381    1.088989
     45          1           0       -3.420495   -0.258974    2.475660
 ---------------------------------------------------------------------

 SCF Done:  E(RPM6) = -0.795157024414     A.U. after    2 cycles

 The electronic state is 1-A.
 Alpha  occ. eigenvalues --   -1.17715  -1.16432  -1.14663  -1.14110  -1.12764
 Alpha  occ. eigenvalues --   -1.11659  -1.10733  -1.10332  -1.09327  -1.09136
 Alpha  occ. eigenvalues --   -1.07253  -1.02930  -1.00706  -0.99569  -0.98626
 Alpha  occ. eigenvalues --   -0.92583  -0.91697  -0.88567  -0.85340  -0.83604
 Alpha  occ. eigenvalues --   -0.82391  -0.77272  -0.75522  -0.74069  -0.72179
 Alpha  occ. eigenvalues --   -0.70974  -0.70015  -0.68716  -0.68213  -0.66598
 Alpha  occ. eigenvalues --   -0.64977  -0.64832  -0.64293  -0.63172  -0.62295
 Alpha  occ. eigenvalues --   -0.61611  -0.60849  -0.60252  -0.59578  -0.58677
 Alpha  occ. eigenvalues --   -0.56630  -0.56296  -0.55499  -0.55137  -0.54114
 Alpha  occ. eigenvalues --   -0.53102  -0.51890  -0.51375  -0.50265  -0.50152
 Alpha  occ. eigenvalues --   -0.49528  -0.49028  -0.48740  -0.48289  -0.47224
 Alpha  occ. eigenvalues --   -0.47009  -0.45873  -0.45265  -0.43378  -0.42800
 Alpha  occ. eigenvalues --   -0.42473  -0.41619  -0.41483  -0.40754  -0.40446
 Alpha  occ. eigenvalues --   -0.39555  -0.39345  -0.38988
 Alpha virt. eigenvalues --    0.00919   0.02276   0.02976   0.04285   0.05155
 Alpha virt. eigenvalues --    0.05494   0.06114   0.07055   0.07250   0.07272
 Alpha virt. eigenvalues --    0.08056   0.08318   0.08592   0.08877   0.09503

 Mulliken charges:
               1
     1  O   -0.559997
     2  C    0.072465
     3  C    0.083890
     4  O   -0.559598
     5  C   -0.012924
     6  C    0.318610
     7  O   -0.469491
     8  C    0.066666
     9  C   -0.044166
    10  O   -0.558191
    11  O   -0.561409
    12  C    0.075681
    13  C    0.087344
    14  C   -0.021141
    15  C    0.345600
    16  O   -0.512647
    17  C    0.077468
    18  C   -0.018329
    19  O   -0.537874
    20  O   -0.596111
    21  O   -0.509211
    22  O   -0.593573
    23  O   -0.550469
    24  H    0.146544
    25  H    0.153715
    26  H    0.339997
    27  H    0.172928
    28  H    0.175953
    29  H    0.167257
    30  H    0.163000
    31  H    0.155413
    32  H    0.345022
    33  H    0.171796
    34  H    0.153240
    35  H    0.170569
    36  H    0.148088
    37  H    0.140586
    38  H    0.170489
    39  H    0.129956
    40  H    0.330774
    41  H    0.359082
    42  H    0.338440
    43  H    0.343592
    44  H    0.356109
    45  H    0.344854
 Sum of Mulliken charges =  -0.00000

 Dipole moment (field-independent basis, Debye):
    X=             -1.7306    Y=             -1.8506    Z=             -1.2192  Tot=              2.8118
 N-N= 1.399406855879D+03 E-N=-2.400826059984D+03  KE=-3.045682356646D+02
  Exact polarizability: 154.306   2.091 133.072   1.755  -0.195 103.702
 Approx polarizability:  99.441   2.310  98.924   1.681  -1.265  84.262
 Leave Link  601 at Tue Jun 22 14:23:18 2021, MaxMem=  2147483648 cpu:               0.2 elap:               0.0
 (Enter /home/matma/Programs/gaussian/G16_x86_SSE4/tar/g16/l701.exe)
 ... and contract with generalized density number  0.
 Compute integral second derivatives.
 Leave Link  701 at Tue Jun 22 14:23:18 2021, MaxMem=  2147483648 cpu:               0.6 elap:               0.1
 (Enter /home/matma/Programs/gaussian/G16_x86_SSE4/tar/g16/l702.exe)
 L702 exits ... SP integral derivatives will be done elsewhere.

                      1                      2                      3
                      A                      A                      A
 Frequencies --     23.1672                27.6400                44.8577
 Red. masses --      6.2964                 4.9460                 5.6271
 Frc consts  --      0.0020                 0.0022                 0.0067
 IR Inten    --      0.1555                 0.6943                 0.2404

                      4                      5                      6
                      A                      A                      A
 Frequencies --     54.3553                75.6177                86.8609
 Red. masses --      6.0244                 5.9447                 5.7012
 Frc consts  --      0.0105                 0.0200                 0.0253
 IR Inten    --      4.3750                 4.4313                 1.6039

                      7                      8                      9
                      A                      A                      A
 Frequencies --     92.1399               103.7799               105.8950
 Red. masses --      4.6578                 4.7445                 4.6126
 Frc consts  --      0.0233                 0.0301                 0.0305
 IR Inten    --      0.5332                 4.1556                 3.0435

                     10                     11                     12
                      A                      A                      A
 Frequencies --    132.9382               150.0162               164.5849
 Red. masses --      5.8550                 3.8146                 6.4299
 Frc consts  --      0.0610                 0.0506                 0.1026
 IR Inten    --      9.8398                 5.4312                 5.4343

                     13                     14                     15
                      A                      A                      A
 Frequencies --    185.4679               199.2061               211.9413
 Red. masses --      6.3309                 5.8395                 5.4495
 Frc consts  --      0.1283                 0.1365                 0.1442
 IR Inten    --      3.0020                20.3900                 0.3119

                     16                     17                     18
                      A                      A                      A
 Frequencies --    228.1632               241.6771               244.2203
 Red. masses --      5.8408                 1.5057                 3.9872
 Frc consts  --      0.1791                 0.0518                 0.1401
 IR Inten    --      4.9669                92.5724                10.9383

                     19                     20                     21
                      A                      A                      A
 Frequencies --    266.6629               283.5832               287.6735
 Red. masses --      5.4279                 5.5025                 2.7705
 Frc consts  --      0.2274                 0.2607                 0.1351
 IR Inten    --      8.0691                 4.5845                72.6511

                     22                     23                     24
                      A                      A                      A
 Frequencies --    302.8946               329.7715               334.0647
 Red. masses --      6.0407                 2.3561                 1.8179
 Frc consts  --      0.3265                 0.1510                 0.1195
 IR Inten    --     14.9959                49.9168                90.4440

                     25                     26                     27
                      A                      A                      A
 Frequencies --    359.1987               372.5190               374.5340
 Red. masses --      6.6062                 1.4190                 2.1811
 Frc consts  --      0.5022                 0.1160                 0.1803
 IR Inten    --      4.7163               120.7985                53.8853

                     28                     29                     30
                      A                      A                      A
 Frequencies --    380.7140               391.7999               396.5170
 Red. masses --      3.1882                 1.9871                 2.8760
 Frc consts  --      0.2723                 0.1797                 0.2664
 IR Inten    --     12.9796                81.8858                46.5945

                     31                     32                     33
                      A                      A                      A
 Frequencies --    402.0863               422.6512               435.5471
 Red. masses --      3.3536                 1.8549                 2.5287
 Frc consts  --      0.3194                 0.1952                 0.2826
 IR Inten    --     32.4613                40.1123                18.0885

                     34                     35                     36
                      A                      A                      A
 Frequencies --    461.8062               468.6458               491.2069
 Red. masses --      3.6529                 2.7918                 3.3523
 Frc consts  --      0.4590                 0.3613                 0.4766
 IR Inten    --      1.2056                12.5005                57.5057

                     37                     38                     39
                      A                      A                      A
 Frequencies --    506.4402               525.2896               530.1074
 Red. masses --      2.2163                 1.5118                 2.4346
 Frc consts  --      0.3349                 0.2458                 0.4031
 IR Inten    --    116.5812                94.9161                13.4548

                     40                     41                     42
                      A                      A                      A
 Frequencies --    541.7520               572.9134               583.0498
 Red. masses --      1.7077                 3.4346                 3.7155
 Frc consts  --      0.2953                 0.6642                 0.7442
 IR Inten    --     47.9372                27.7049                25.3485

                     43                     44                     45
                      A                      A                      A
 Frequencies --    611.3215               616.4895               624.3551
 Red. masses --      4.7064                 2.5753                 1.3375
 Frc consts  --      1.0363                 0.5767                 0.3072
 IR Inten    --     18.6827                 2.3204               147.9995

                     46                     47                     48
                      A                      A                      A
 Frequencies --    657.8844               736.9727               836.9696
 Red. masses --      5.0856                 3.8722                 2.7511
 Frc consts  --      1.2969                 1.2391                 1.1355
 IR Inten    --      7.6081                13.0913                34.8942

                     49                     50                     51
                      A                      A                      A
 Frequencies --    874.6455               936.3411               963.9656
 Red. masses --      1.8154                 2.2202                 3.9549
 Frc consts  --      0.8183                 1.1469                 2.1653
 IR Inten    --     14.1836                17.3837                14.5658

                     52                     53                     54
                      A                      A                      A
 Frequencies --    982.9381               987.7849              1005.5663
 Red. masses --      1.9444                 2.7974                 3.3045
 Frc consts  --      1.1068                 1.6082                 1.9687
 IR Inten    --     19.2752                19.9679                 5.2631

                     55                     56                     57
                      A                      A                      A
 Frequencies --   1008.0846              1034.8819              1048.0833
 Red. masses --      3.4990                 2.9960                 2.4580
 Frc consts  --      2.0950                 1.8905                 1.5908
 IR Inten    --    191.3276               114.8054               114.2827

                     58                     59                     60
                      A                      A                      A
 Frequencies --   1060.6467              1065.5749              1081.8441
 Red. masses --      2.6816                 2.1548                 1.8385
 Frc consts  --      1.7774                 1.4416                 1.2678
 IR Inten    --    147.8297               212.9822                19.8527

                     61                     62                     63
                      A                      A                      A
 Frequencies --   1085.8195              1091.4054              1097.3425
 Red. masses --      1.9937                 1.8237                 2.5841
 Frc consts  --      1.3849                 1.2799                 1.8334
 IR Inten    --     31.3223                39.9781                50.8931

                     64                     65                     66
                      A                      A                      A
 Frequencies --   1100.8416              1105.6040              1110.9939
 Red. masses --      2.5553                 1.8182                 2.1791
 Frc consts  --      1.8245                 1.3095                 1.5847
 IR Inten    --     85.1670               116.4255                 6.3277

                     67                     68                     69
                      A                      A                      A
 Frequencies --   1115.7967              1121.0661              1135.1111
 Red. masses --      2.3147                 2.5988                 2.1555
 Frc consts  --      1.6979                 1.9244                 1.6363
 IR Inten    --     23.1182                37.3194                48.9270

                     70                     71                     72
                      A                      A                      A
 Frequencies --   1137.7836              1141.6031              1145.2447
 Red. masses --      2.2352                 1.9719                 1.6085
 Frc consts  --      1.7048                 1.5142                 1.2430
 IR Inten    --     49.4780                23.0556                18.8132

                     73                     74                     75
                      A                      A                      A
 Frequencies --   1149.5171              1158.5688              1163.8826
 Red. masses --      1.7593                 1.4358                 1.7527
 Frc consts  --      1.3697                 1.1355                 1.3989
 IR Inten    --     24.4387                35.7661                22.6429

                     76                     77                     78
                      A                      A                      A
 Frequencies --   1167.6033              1175.2587              1179.1605
 Red. masses --      1.4741                 1.3801                 1.6734
 Frc consts  --      1.1841                 1.1231                 1.3709
 IR Inten    --      2.5262                17.5131                47.9296

                     79                     80                     81
                      A                      A                      A
 Frequencies --   1183.3542              1187.8194              1191.9234
 Red. masses --      1.5189                 1.5917                 1.5921
 Frc consts  --      1.2532                 1.3231                 1.3326
 IR Inten    --      8.0636                47.5315                 3.4571

                     82                     83                     84
                      A                      A                      A
 Frequencies --   1196.5601              1196.6967              1199.9346
 Red. masses --      1.2812                 1.2688                 1.6173
 Frc consts  --      1.0808                 1.0705                 1.3720
 IR Inten    --      4.7174                12.4785                20.9640

                     85                     86                     87
                      A                      A                      A
 Frequencies --   1206.0034              1207.8740              1215.7141
 Red. masses --      1.3521                 1.3568                 1.8484
 Frc consts  --      1.1587                 1.1663                 1.6096
 IR Inten    --     59.9471                16.4667                71.1489

                     88                     89                     90
                      A                      A                      A
 Frequencies --   1222.1049              1225.7035              1235.5770
 Red. masses --      1.4739                 1.5356                 1.7704
 Frc consts  --      1.2970                 1.3593                 1.5924
 IR Inten    --      8.6642                17.3991                 2.5300

                     91                     92                     93
                      A                      A                      A
 Frequencies --   1239.0607              1244.8869              1246.3622
 Red. masses --      1.6913                 1.5648                 1.5228
 Frc consts  --      1.5299                 1.4288                 1.3938
 IR Inten    --     12.4503                26.8773                25.5374

                     94                     95                     96
                      A                      A                      A
 Frequencies --   1249.0415              1256.3625              1262.7128
 Red. masses --      1.5490                 1.4208                 1.2492
 Frc consts  --      1.4238                 1.3214                 1.1735
 IR Inten    --     60.5603                 6.2211                11.4087

                     97                     98                     99
                      A                      A                      A
 Frequencies --   1263.1603              1276.4224              1280.2031
 Red. masses --      1.2929                 1.7008                 1.3616
 Frc consts  --      1.2154                 1.6326                 1.3148
 IR Inten    --     17.1215                 8.2249                 0.3303

                    100                    101                    102
                      A                      A                      A
 Frequencies --   1320.2447              1333.2360              1342.2317
 Red. masses --      1.6803                 1.6346                 1.7220
 Frc consts  --      1.7256                 1.7118                 1.8278
 IR Inten    --     17.4019                52.4723                32.2919

                    103                    104                    105
                      A                      A                      A
 Frequencies --   1357.1528              1358.2479              1368.9111
 Red. masses --      1.8030                 1.5969                 1.5849
 Frc consts  --      1.9566                 1.7358                 1.7498
 IR Inten    --     41.6117                32.8085                27.6780

                    106                    107                    108
                      A                      A                      A
 Frequencies --   1369.7272              1399.6931              2300.8635
 Red. masses --      1.2148                 1.2145                 1.0605
 Frc consts  --      1.3429                 1.4019                 3.3079
 IR Inten    --     13.8640                43.3442               784.9126

                    109                    110                    111
                      A                      A                      A
 Frequencies --   2486.4959              2490.7874              2506.2275
 Red. masses --      1.0543                 1.0558                 1.0541
 Frc consts  --      3.8406                 3.8593                 3.9011
 IR Inten    --    255.1626               355.1145               248.7151

                    112                    113                    114
                      A                      A                      A
 Frequencies --   2520.1420              2523.5155              2537.0118
 Red. masses --      1.0547                 1.0527                 1.0545
 Frc consts  --      3.9465                 3.9498                 3.9990
 IR Inten    --     99.5978               394.1873               389.8412

                    115                    116                    117
                      A                      A                      A
 Frequencies --   2542.3612              2635.4503              2640.5842
 Red. masses --      1.0546                 1.0631                 1.0780
 Frc consts  --      4.0163                 4.3506                 4.4286
 IR Inten    --    250.6636                26.2011                13.0323

                    118                    119                    120
                      A                      A                      A
 Frequencies --   2651.3186              2652.7673              2658.3807
 Red. masses --      1.0621                 1.0822                 1.0602
 Frc consts  --      4.3989                 4.4868                 4.4145
 IR Inten    --     84.7652                46.6886                39.8913

                    121                    122                    123
                      A                      A                      A
 Frequencies --   2661.6884              2662.8645              2667.0882
 Red. masses --      1.0665                 1.0668                 1.0660
 Frc consts  --      4.4516                 4.4570                 4.4678
 IR Inten    --     54.0086                67.1342                26.1343

                    124                    125                    126
                      A                      A                      A
 Frequencies --   2670.9976              2677.6461              2683.1418
 Red. masses --      1.0702                 1.0680                 1.0680
 Frc consts  --      4.4983                 4.5114                 4.5302
 IR Inten    --     38.8460                64.4627               185.3524

                    127                    128                    129
                      A                      A                      A
 Frequencies --   2684.1201              2715.2031              2721.1167
 Red. masses --      1.0733                 1.0447                 1.0489
 Frc consts  --      4.5558                 4.5379                 4.5759
 IR Inten    --    154.8279                45.6411                48.7507

 - Thermochemistry -
 -------------------
 Temperature   298.150 Kelvin.  Pressure   1.00000 Atm.
 Atom     1 has atomic number  8 and mass  15.99491

 Molecular mass:   342.11621 amu.
 Principal axes and moments of inertia in atomic units:
                           1         2         3
     Eigenvalues --  3883.98955********************
           X            0.99999  -0.00281  -0.00273
           Y            0.00282   0.99999   0.00281
           Z            0.00273  -0.00282   0.99999
 This molecule is an asymmetric top.
 Rotational symmetry number  1.
 Warning -- assumption of classical behavior for rotation
           may cause significant error
 Rotational temperatures (Kelvin)      0.02230     0.00792     0.00666
 Rotational constants (GHZ):           0.46466     0.16506     0.13885
 Zero-point vibrational energy     854358.6 (Joules/Mol)
                                  204.19661 (Kcal/Mol)
 Warning -- explicit consideration of  44 degrees of freedom as
           vibrations may cause significant error
 Vibrational temperatures:     33.33    39.77    64.54    78.21   108.80
          (Kelvin)            124.97   132.57   149.32   152.36   191.27
                              215.84   236.80   266.85   286.61   304.94
                              328.28   347.72   351.38   383.67   408.01
                              413.90   435.80   474.47   480.64   516.81
                              535.97   538.87   547.76   563.71   570.50
                              578.51   608.10   626.66   664.44   674.28
                              706.74   728.65   755.77   762.71   779.46
                              824.29   838.88   879.56   886.99   898.31
                              946.55  1060.34  1204.21  1258.42  1347.19
                             1386.93  1414.23  1421.20  1446.79  1450.41
                             1488.96  1507.96  1526.03  1533.12  1556.53
                             1562.25  1570.29  1578.83  1583.87  1590.72
                             1598.47  1605.38  1612.96  1633.17  1637.02
                             1642.51  1647.75  1653.90  1666.92  1674.57
                             1679.92  1690.94  1696.55  1702.58  1709.01
                             1714.91  1721.58  1721.78  1726.44  1735.17
                             1737.86  1749.14  1758.34  1763.51  1777.72
                             1782.73  1791.11  1793.24  1797.09  1807.63
                             1816.76  1817.41  1836.49  1841.93  1899.54
                             1918.23  1931.17  1952.64  1954.22  1969.56
                             1970.73  2013.85  3310.43  3577.51  3583.69
                             3605.90  3625.92  3630.78  3650.19  3657.89
                             3791.83  3799.21  3814.66  3816.74  3824.82
                             3829.58  3831.27  3837.35  3842.97  3852.54
                             3860.44  3861.85  3906.57  3915.08

 Zero-point correction=                           0.325408 (Hartree/Particle)
 Thermal correction to Energy=                    0.349822
 Thermal correction to Enthalpy=                  0.350766
 Thermal correction to Gibbs Free Energy=         0.271769
 Sum of electronic and zero-point Energies=             -0.469749
 Sum of electronic and thermal Energies=                -0.445335
 Sum of electronic and thermal Enthalpies=              -0.444391
 Sum of electronic and thermal Free Energies=           -0.523388

                     E (Thermal)             CV                S
                      KCal/Mol        Cal/Mol-Kelvin    Cal/Mol-Kelvin
 Total                  219.516             93.789            166.262
 Electronic               0.000              0.000              0.000
 Translational            0.889              2.981             43.384
 Rotational               0.889              2.981             34.667
 Vibrational            217.739             87.827             88.211
 Vibration     1          0.593              1.985              6.342
 Vibration     2          0.593              1.984              5.992
 Vibration     3          0.595              1.979              5.032
 Vibration     4          0.596              1.976              4.652
 Vibration     5          0.599              1.965              4.002
 Vibration     6          0.601              1.958              3.730
 Vibration     7          0.602              1.955              3.614
 Vibration     8          0.605              1.946              3.382
 Vibration     9          0.605              1.945              3.343
 Vibration    10          0.613              1.920              2.903
 Vibration    11          0.618              1.903              2.672
 Vibration    12          0.623              1.886              2.496
 Vibration    13          0.632              1.860              2.273
 Vibration    14          0.637              1.841              2.140
 Vibration    15          0.643              1.823              2.027
 Vibration    16          0.651              1.798              1.893
 Vibration    17          0.658              1.776              1.790
 Vibration    18          0.660              1.772              1.772
 Vibration    19          0.672              1.734              1.618
 Vibration    20          0.682              1.704              1.512
 Vibration    21          0.685              1.697              1.488
 Vibration    22          0.694              1.668              1.401
 Vibration    23          0.713              1.616              1.261
 Vibration    24          0.716              1.607              1.240
 Vibration    25          0.734              1.556              1.126
 Vibration    26          0.744              1.529              1.069
 Vibration    27          0.746              1.524              1.061
 Vibration    28          0.750              1.511              1.036
 Vibration    29          0.759              1.488              0.993
 Vibration    30          0.763              1.478              0.976
 Vibration    31          0.768              1.466              0.955
 Vibration    32          0.785              1.421              0.883
 Vibration    33          0.796              1.393              0.841
 Vibration    34          0.820              1.335              0.761
 Vibration    35          0.826              1.320              0.741
 Vibration    36          0.847              1.270              0.680
 Vibration    37          0.862              1.236              0.642
 Vibration    38          0.880              1.194              0.598
 Vibration    39          0.885              1.183              0.587
 Vibration    40          0.897              1.158              0.562
 Vibration    41          0.929              1.090              0.499
 Vibration    42          0.940              1.068              0.480
 Vibration    43          0.970              1.008              0.431
 Vibration    44          0.976              0.997              0.422

 Optimization completed.
    -- Stationary point found.
 Normal termination of Gaussian 16 at Tue Jun 22 14:23:18 2021.
