 Gaussian 16, Revision B.01,
 Gaussian 16:  ES64L-G16RevB.01 20-Dec-2017

 --------------------------------------
 #P pm6 opt=loose freq int=(grid=99590)
 --------------------------------------

 ------------
 offspring-03
 ------------
 Symbolic Z-matrix:
 Charge =  0 Multiplicity = 1

 SCF Done:  E(RPM6) = -0.776763668419     A.U. after   14 cycles
 SCF Done:  E(RPM6) = -0.786372985942     A.U. after   13 cycles
 SCF Done:  E(RPM6) = -0.788593168504     A.U. after   12 cycles
 SCF Done:  E(RPM6) = -0.787334264045     A.U. after   13 cycles
 SCF Done:  E(RPM6) = -0.787014278676     A.U. after   12 cycles
 SCF Done:  E(RPM6) = -0.788060211420     A.U. after   12 cycles
 SCF Done:  E(RPM6) = -0.789671678756     A.U. after   10 cycles
 SCF Done:  E(RPM6) = -0.790544135645     A.U. after   13 cycles
 SCF Done:  E(RPM6) = -0.791260643564     A.U. after   12 cycles
 SCF Done:  E(RPM6) = -0.792287301272     A.U. after   13 cycles
 SCF Done:  E(RPM6) = -0.794021416282     A.U. after   12 cycles
 SCF Done:  E(RPM6) = -0.794424046413     A.U. after   12 cycles
 SCF Done:  E(RPM6) = -0.794191748096     A.U. after   12 cycles
 SCF Done:  E(RPM6) = -0.794970090129     A.U. after   11 cycles
 SCF Done:  E(RPM6) = -0.795086007064     A.U. after   11 cycles
 SCF Done:  E(RPM6) = -0.795133519793     A.U. after   11 cycles
 SCF Done:  E(RPM6) = -0.795145325042     A.U. after   10 cycles
 SCF Done:  E(RPM6) = -0.795152425333     A.U. after   10 cycles
 SCF Done:  E(RPM6) = -0.795154925942     A.U. after    9 cycles
 Optimization completed.
    -- Stationary point found.
 Normal termination of Gaussian 16 at Tue Jun 22 14:21:31 2021.

 -------------------------------------------------------------
 #P Geom=AllCheck Guess=TCheck SCRF=Check GenChk RPM6/ZDO Freq
 -------------------------------------------------------------

 Structure from the checkpoint file:  "/scratch-data/gaussian/Gau-31887.chk"
 ------------
 offspring-03
 ------------
 Charge =  0 Multiplicity = 1

                         Standard orientation:
 ---------------------------------------------------------------------
 Center     Atomic      Atomic             Coordinates (Angstroms)
 Number     Number       Type             X           Y           Z
 ---------------------------------------------------------------------
      1          8           0       -3.137453    0.529239    1.936567
      2          6           0       -3.736128    0.456599    0.635965
      3          6           0       -3.564996   -0.973501    0.073585
      4          8           0       -3.970510   -1.813306    1.161364
      5          6           0       -2.081132   -1.235081   -0.264310
      6          6           0       -1.628520   -0.252311   -1.361229
      7          8           0       -2.440968    0.914092   -1.431755
      8          6           0       -3.008428    1.500244   -0.240090
      9          6           0       -1.909641    2.266197    0.509851
     10          8           0       -1.059059    2.926453   -0.445446
     11          8           0        3.993428    1.657737   -0.177292
     12          6           0        3.021485    0.687318    0.249174
     13          6           0        1.633394    1.112039   -0.279200
     14          6           0        0.599377   -0.034819   -0.206984
     15          6           0        1.175676   -1.450516   -0.479293
     16          8           0        2.526456   -1.660621   -0.061422
     17          6           0        3.490479   -0.631197   -0.387870
     18          6           0        4.798620   -1.175143    0.225167
     19          8           0        5.402199   -0.251784    1.124245
     20          8           0        0.472507   -2.382939    0.340241
     21          8           0       -0.279714    0.233836   -1.319898
     22          8           0        1.262707    2.147191    0.623885
     23          8           0       -2.049915   -2.554662   -0.811279
     24          1           0       -4.817125    0.703294    0.750255
     25          1           0       -4.221403   -1.175916   -0.801719
     26          1           0       -3.740827   -2.753352    0.951723
     27          1           0       -1.452590   -1.183252    0.657830
     28          1           0       -1.710977   -0.658096   -2.401305
     29          1           0       -3.736664    2.205320   -0.715553
     30          1           0       -2.316151    3.082888    1.133836
     31          1           0       -1.281789    1.603941    1.139704
     32          1           0       -0.945406    2.325333   -1.249403
     33          1           0        3.025427    0.638974    1.365313
     34          1           0        1.692583    1.512434   -1.319171
     35          1           0        0.046571   -0.001311    0.761075
     36          1           0        1.040192   -1.781659   -1.530616
     37          1           0        3.552630   -0.546194   -1.494651
     38          1           0        4.594041   -2.062568    0.862641
     39          1           0        5.523263   -1.442812   -0.564843
     40          1           0        5.544022    0.625782    0.675776
     41          1           0        0.520658    2.727936    0.229001
     42          1           0        3.747692    2.541773    0.196492
     43          1           0       -1.187718   -2.996903   -0.571635
     44          1           0        1.048665   -2.687417    1.088729
     45          1           0       -3.423624   -0.259046    2.474259
 ---------------------------------------------------------------------

 SCF Done:  E(RPM6) = -0.795154925955     A.U. after    2 cycles

 The electronic state is 1-A.
 Alpha  occ. eigenvalues --   -1.17720  -1.16428  -1.14658  -1.14109  -1.12769
 Alpha  occ. eigenvalues --   -1.11661  -1.10727  -1.10323  -1.09334  -1.09130
 Alpha  occ. eigenvalues --   -1.07249  -1.02931  -1.00706  -0.99582  -0.98630
 Alpha  occ. eigenvalues --   -0.92589  -0.91706  -0.88562  -0.85334  -0.83608
 Alpha  occ. eigenvalues --   -0.82394  -0.77261  -0.75532  -0.74067  -0.72167
 Alpha  occ. eigenvalues --   -0.70972  -0.69999  -0.68716  -0.68210  -0.66618
 Alpha  occ. eigenvalues --   -0.64989  -0.64829  -0.64290  -0.63168  -0.62300
 Alpha  occ. eigenvalues --   -0.61622  -0.60853  -0.60250  -0.59580  -0.58673
 Alpha  occ. eigenvalues --   -0.56624  -0.56313  -0.55505  -0.55154  -0.54120
 Alpha  occ. eigenvalues --   -0.53110  -0.51889  -0.51376  -0.50273  -0.50160
 Alpha  occ. eigenvalues --   -0.49541  -0.49025  -0.48752  -0.48282  -0.47221
 Alpha  occ. eigenvalues --   -0.47012  -0.45855  -0.45248  -0.43376  -0.42812
 Alpha  occ. eigenvalues --   -0.42469  -0.41606  -0.41482  -0.40769  -0.40446
 Alpha  occ. eigenvalues --   -0.39557  -0.39354  -0.38994
 Alpha virt. eigenvalues --    0.00917   0.02269   0.02978   0.04290   0.05151
 Alpha virt. eigenvalues --    0.05490   0.06110   0.07056   0.07239   0.07272
 Alpha virt. eigenvalues --    0.08051   0.08307   0.08586   0.08880   0.09501

 Mulliken charges:
               1
     1  O   -0.560021
     2  C    0.072525
     3  C    0.083649
     4  O   -0.559475
     5  C   -0.012989
     6  C    0.318519
     7  O   -0.469372
     8  C    0.066609
     9  C   -0.044117
    10  O   -0.558138
    11  O   -0.561341
    12  C    0.075635
    13  C    0.087316
    14  C   -0.021305
    15  C    0.345668
    16  O   -0.512806
    17  C    0.077701
    18  C   -0.018308
    19  O   -0.537711
    20  O   -0.597043
    21  O   -0.508997
    22  O   -0.593848
    23  O   -0.550561
    24  H    0.146589
    25  H    0.153741
    26  H    0.340054
    27  H    0.173023
    28  H    0.175954
    29  H    0.167320
    30  H    0.163069
    31  H    0.155346
    32  H    0.345125
    33  H    0.171728
    34  H    0.153142
    35  H    0.170761
    36  H    0.148066
    37  H    0.140568
    38  H    0.170560
    39  H    0.129935
    40  H    0.330730
    41  H    0.359283
    42  H    0.338614
    43  H    0.343665
    44  H    0.356190
    45  H    0.344946
 Sum of Mulliken charges =   0.00000

 Dipole moment (field-independent basis, Debye):
    X=             -1.7194    Y=             -1.8475    Z=             -1.2350  Tot=              2.8098
 N-N= 1.399514194953D+03 E-N=-2.401037580508D+03  KE=-3.045696637739D+02
  Exact polarizability: 154.326   1.979 133.035   1.752  -0.170 103.692
 Approx polarizability:  99.458   2.207  98.916   1.687  -1.219  84.254
 Leave Link  601 at Tue Jun 22 14:21:32 2021, MaxMem=  2147483648 cpu:               0.2 elap:               0.0
 (Enter /home/matma/Programs/gaussian/G16_x86_SSE4/tar/g16/l701.exe)
 ... and contract with generalized density number  0.
 Compute integral second derivatives.
 Leave Link  701 at Tue Jun 22 14:21:32 2021, MaxMem=  2147483648 cpu:               0.6 elap:               0.1
 (Enter /home/matma/Programs/gaussian/G16_x86_SSE4/tar/g16/l702.exe)
 L702 exits ... SP integral derivatives will be done elsewhere.

                      1                      2                      3
                      A                      A                      A
 Frequencies --     23.4012                27.4468                44.6153
 Red. masses --      6.2908                 4.9483                 5.7150
 Frc consts  --      0.0020                 0.0022                 0.0067
 IR Inten    --      0.2083                 0.6599                 0.2349

                      4                      5                      6
                      A                      A                      A
 Frequencies --     54.4858                75.9441                86.8802
 Red. masses --      5.9895                 5.9378                 5.5308
 Frc consts  --      0.0105                 0.0202                 0.0246
 IR Inten    --      4.4222                 4.4151                 1.6191

                      7                      8                      9
                      A                      A                      A
 Frequencies --     91.9201               102.8754               106.1079
 Red. masses --      4.6787                 4.8201                 4.5948
 Frc consts  --      0.0233                 0.0301                 0.0305
 IR Inten    --      0.4173                 4.1812                 3.0550

                     10                     11                     12
                      A                      A                      A
 Frequencies --    132.7694               150.1239               164.7241
 Red. masses --      5.8828                 3.8186                 6.3950
 Frc consts  --      0.0611                 0.0507                 0.1022
 IR Inten    --      9.7827                 5.3401                 5.2540

                     13                     14                     15
                      A                      A                      A
 Frequencies --    185.5117               199.3238               211.8309
 Red. masses --      6.3144                 5.8076                 5.4242
 Frc consts  --      0.1280                 0.1359                 0.1434
 IR Inten    --      2.8700                20.4070                 0.3373

                     16                     17                     18
                      A                      A                      A
 Frequencies --    228.0857               241.3360               244.1772
 Red. masses --      5.8530                 1.4769                 4.2321
 Frc consts  --      0.1794                 0.0507                 0.1487
 IR Inten    --      5.0520                93.2917                 9.2829

                     19                     20                     21
                      A                      A                      A
 Frequencies --    267.0202               283.6806               287.8344
 Red. masses --      5.4027                 5.2385                 2.8836
 Frc consts  --      0.2270                 0.2484                 0.1408
 IR Inten    --      8.2903                 3.8032                72.0810

                     22                     23                     24
                      A                      A                      A
 Frequencies --    302.9375               330.6113               335.9029
 Red. masses --      6.0035                 3.3528                 1.4828
 Frc consts  --      0.3246                 0.2159                 0.0986
 IR Inten    --     14.1195                30.6767               109.5506

                     25                     26                     27
                      A                      A                      A
 Frequencies --    359.4172               373.0783               374.5373
 Red. masses --      6.5854                 1.4261                 2.0431
 Frc consts  --      0.5012                 0.1169                 0.1689
 IR Inten    --      4.9278               131.7068                44.4049

                     28                     29                     30
                      A                      A                      A
 Frequencies --    380.3429               391.7060               396.3136
 Red. masses --      3.3948                 1.9304                 3.0564
 Frc consts  --      0.2893                 0.1745                 0.2828
 IR Inten    --     12.0073                87.7103                41.4830

                     31                     32                     33
                      A                      A                      A
 Frequencies --    402.1403               423.0381               435.8793
 Red. masses --      3.3393                 1.8850                 2.4663
 Frc consts  --      0.3182                 0.1988                 0.2761
 IR Inten    --     30.8836                39.1063                19.0406

                     34                     35                     36
                      A                      A                      A
 Frequencies --    461.9702               468.6934               491.3358
 Red. masses --      3.7380                 2.7597                 3.3513
 Frc consts  --      0.4700                 0.3572                 0.4767
 IR Inten    --      1.0443                12.4944                57.4759

                     37                     38                     39
                      A                      A                      A
 Frequencies --    506.8045               525.7370               530.4418
 Red. masses --      2.2111                 1.5131                 2.4241
 Frc consts  --      0.3346                 0.2464                 0.4019
 IR Inten    --    116.8591                95.2741                14.5204

                     40                     41                     42
                      A                      A                      A
 Frequencies --    541.8919               573.2039               583.2333
 Red. masses --      1.7131                 3.4437                 3.7208
 Frc consts  --      0.2964                 0.6666                 0.7457
 IR Inten    --     47.4000                27.2288                24.0842

                     43                     44                     45
                      A                      A                      A
 Frequencies --    611.5644               616.7555               624.9322
 Red. masses --      4.7069                 2.6725                 1.3125
 Frc consts  --      1.0372                 0.5990                 0.3020
 IR Inten    --     19.5438                 1.8265               150.9493

                     46                     47                     48
                      A                      A                      A
 Frequencies --    657.9392               736.8938               837.0386
 Red. masses --      5.0808                 3.8714                 2.7508
 Frc consts  --      1.2959                 1.2386                 1.1355
 IR Inten    --      7.6705                13.0315                34.8857

                     49                     50                     51
                      A                      A                      A
 Frequencies --    874.0658               936.1876               964.2415
 Red. masses --      1.8197                 2.2231                 3.9580
 Frc consts  --      0.8191                 1.1480                 2.1682
 IR Inten    --     13.9248                17.4352                14.5673

                     52                     53                     54
                      A                      A                      A
 Frequencies --    982.7586               987.4243              1005.4385
 Red. masses --      1.9659                 2.7556                 3.3222
 Frc consts  --      1.1187                 1.5830                 1.9787
 IR Inten    --     20.0790                18.6687                 5.9697

                     55                     56                     57
                      A                      A                      A
 Frequencies --   1007.9778              1034.7723              1048.1750
 Red. masses --      3.4920                 3.0055                 2.4573
 Frc consts  --      2.0904                 1.8961                 1.5906
 IR Inten    --    190.6687               115.8785               110.5203

                     58                     59                     60
                      A                      A                      A
 Frequencies --   1059.9530              1065.4328              1081.7301
 Red. masses --      2.6949                 2.1575                 1.8317
 Frc consts  --      1.7839                 1.4430                 1.2628
 IR Inten    --    152.5759               208.1867                22.2632

                     61                     62                     63
                      A                      A                      A
 Frequencies --   1085.4686              1091.2683              1097.2516
 Red. masses --      1.9975                 1.8129                 2.5461
 Frc consts  --      1.3867                 1.2720                 1.8061
 IR Inten    --     29.9383                43.9782                49.4762

                     64                     65                     66
                      A                      A                      A
 Frequencies --   1100.7446              1105.7625              1111.1115
 Red. masses --      2.5382                 1.8410                 2.1716
 Frc consts  --      1.8119                 1.3263                 1.5796
 IR Inten    --     84.1835               117.4900                 6.6950

                     67                     68                     69
                      A                      A                      A
 Frequencies --   1115.8929              1121.2550              1135.1273
 Red. masses --      2.3193                 2.5927                 2.1437
 Frc consts  --      1.7016                 1.9205                 1.6274
 IR Inten    --     22.5203                35.6842                48.1933

                     70                     71                     72
                      A                      A                      A
 Frequencies --   1137.5352              1141.5255              1145.0271
 Red. masses --      2.2224                 1.9390                 1.6599
 Frc consts  --      1.6943                 1.4887                 1.2822
 IR Inten    --     48.5579                24.0071                21.7863

                     73                     74                     75
                      A                      A                      A
 Frequencies --   1149.7829              1158.8332              1164.0923
 Red. masses --      1.7372                 1.4371                 1.7571
 Frc consts  --      1.3531                 1.1371                 1.4029
 IR Inten    --     22.1937                34.0140                24.3664

                     76                     77                     78
                      A                      A                      A
 Frequencies --   1167.7352              1175.3774              1179.3219
 Red. masses --      1.4712                 1.3862                 1.7024
 Frc consts  --      1.1820                 1.1283                 1.3950
 IR Inten    --      2.7027                18.0629                48.1995

                     79                     80                     81
                      A                      A                      A
 Frequencies --   1183.5143              1187.9523              1192.0677
 Red. masses --      1.5028                 1.6043                 1.5843
 Frc consts  --      1.2402                 1.3339                 1.3264
 IR Inten    --      7.4339                46.6143                 2.9241

                     82                     83                     84
                      A                      A                      A
 Frequencies --   1196.6135              1196.9972              1199.9928
 Red. masses --      1.2943                 1.2567                 1.6088
 Frc consts  --      1.0920                 1.0609                 1.3650
 IR Inten    --      4.1533                12.1430                21.7613

                     85                     86                     87
                      A                      A                      A
 Frequencies --   1205.8790              1207.9182              1215.8102
 Red. masses --      1.3522                 1.3545                 1.8321
 Frc consts  --      1.1585                 1.1644                 1.5956
 IR Inten    --     59.8759                15.9484                72.5398

                     88                     89                     90
                      A                      A                      A
 Frequencies --   1222.1864              1225.5981              1235.4957
 Red. masses --      1.4831                 1.5313                 1.7667
 Frc consts  --      1.3053                 1.3552                 1.5889
 IR Inten    --     10.4288                16.7532                 2.7215

                     91                     92                     93
                      A                      A                      A
 Frequencies --   1239.0884              1244.8410              1246.4908
 Red. masses --      1.6775                 1.5629                 1.5305
 Frc consts  --      1.5174                 1.4269                 1.4010
 IR Inten    --     11.3388                28.4008                20.9075

                     94                     95                     96
                      A                      A                      A
 Frequencies --   1248.9338              1256.2841              1262.5348
 Red. masses --      1.5591                 1.4237                 1.2398
 Frc consts  --      1.4328                 1.3238                 1.1643
 IR Inten    --     63.1751                 6.3564                13.1120

                     97                     98                     99
                      A                      A                      A
 Frequencies --   1263.0883              1276.3981              1280.4742
 Red. masses --      1.2963                 1.7002                 1.3606
 Frc consts  --      1.2185                 1.6320                 1.3144
 IR Inten    --     15.6215                 8.0243                 0.3288

                    100                    101                    102
                      A                      A                      A
 Frequencies --   1320.3943              1333.3805              1342.5485
 Red. masses --      1.6829                 1.6409                 1.7176
 Frc consts  --      1.7287                 1.7189                 1.8241
 IR Inten    --     17.5215                52.5989                32.9687

                    103                    104                    105
                      A                      A                      A
 Frequencies --   1357.2837              1358.1179              1369.1526
 Red. masses --      1.6847                 1.7011                 1.5803
 Frc consts  --      1.8286                 1.8487                 1.7454
 IR Inten    --     62.9263                13.7761                26.8678

                    106                    107                    108
                      A                      A                      A
 Frequencies --   1369.5833              1399.6238              2299.1845
 Red. masses --      1.2187                 1.2143                 1.0605
 Frc consts  --      1.3469                 1.4016                 3.3031
 IR Inten    --     14.0779                43.3505               792.9533

                    109                    110                    111
                      A                      A                      A
 Frequencies --   2486.2219              2490.1424              2506.7884
 Red. masses --      1.0543                 1.0558                 1.0541
 Frc consts  --      3.8397                 3.8574                 3.9027
 IR Inten    --    254.8966               358.1956               247.4232

                    112                    113                    114
                      A                      A                      A
 Frequencies --   2519.7590              2523.5207              2536.7548
 Red. masses --      1.0547                 1.0527                 1.0545
 Frc consts  --      3.9456                 3.9497                 3.9982
 IR Inten    --    117.0970               377.6762               388.7690

                    115                    116                    117
                      A                      A                      A
 Frequencies --   2542.3598              2634.9678              2640.5315
 Red. masses --      1.0546                 1.0631                 1.0779
 Frc consts  --      4.0163                 4.3489                 4.4280
 IR Inten    --    251.4319                25.9732                12.6095

                    118                    119                    120
                      A                      A                      A
 Frequencies --   2651.0771              2652.6964              2658.3997
 Red. masses --      1.0622                 1.0823                 1.0603
 Frc consts  --      4.3986                 4.4871                 4.4147
 IR Inten    --     86.7401                46.5940                40.2785

                    121                    122                    123
                      A                      A                      A
 Frequencies --   2661.5008              2662.6859              2667.0489
 Red. masses --      1.0665                 1.0666                 1.0660
 Frc consts  --      4.4513                 4.4556                 4.4678
 IR Inten    --     52.2526                67.8190                25.9867

                    124                    125                    126
                      A                      A                      A
 Frequencies --   2670.9926              2677.4127              2682.9147
 Red. masses --      1.0700                 1.0680                 1.0680
 Frc consts  --      4.4977                 4.5107                 4.5293
 IR Inten    --     37.0601                64.4738               187.4916

                    127                    128                    129
                      A                      A                      A
 Frequencies --   2684.0285              2715.0247              2721.1172
 Red. masses --      1.0733                 1.0447                 1.0489
 Frc consts  --      4.5557                 4.5372                 4.5758
 IR Inten    --    153.8875                45.7067                48.8167

 - Thermochemistry -
 -------------------
 Temperature   298.150 Kelvin.  Pressure   1.00000 Atm.
 Atom     1 has atomic number  8 and mass  15.99491

 Molecular mass:   342.11621 amu.
 Principal axes and moments of inertia in atomic units:
                           1         2         3
     Eigenvalues --  3883.36143********************
           X            0.99999  -0.00279  -0.00274
           Y            0.00280   0.99999   0.00283
           Z            0.00273  -0.00284   0.99999
 This molecule is an asymmetric top.
 Rotational symmetry number  1.
 Warning -- assumption of classical behavior for rotation
           may cause significant error
 Rotational temperatures (Kelvin)      0.02230     0.00792     0.00667
 Rotational constants (GHZ):           0.46474     0.16511     0.13891
 Zero-point vibrational energy     854367.4 (Joules/Mol)
                                  204.19872 (Kcal/Mol)
 Warning -- explicit consideration of  44 degrees of freedom as
           vibrations may cause significant error
 Vibrational temperatures:     33.67    39.49    64.19    78.39   109.27
          (Kelvin)            125.00   132.25   148.01   152.67   191.03
                              215.99   237.00   266.91   286.78   304.78
                              328.16   347.23   351.32   384.18   408.15
                              414.13   435.86   475.68   483.29   517.12
                              536.78   538.88   547.23   563.58   570.21
                              578.59   608.66   627.13   664.67   674.35
                              706.92   729.18   756.42   763.19   779.66
                              824.71   839.14   879.90   887.37   899.14
                              946.63  1060.23  1204.31  1257.59  1346.97
                             1387.33  1413.97  1420.68  1446.60  1450.26
                             1488.81  1508.09  1525.04  1532.92  1556.37
                             1561.75  1570.09  1578.70  1583.73  1590.95
                             1598.64  1605.52  1613.24  1633.20  1636.66
                             1642.40  1647.44  1654.28  1667.30  1674.87
                             1680.11  1691.11  1696.78  1702.81  1709.20
                             1715.12  1721.66  1722.21  1726.52  1734.99
                             1737.92  1749.28  1758.45  1763.36  1777.60
                             1782.77  1791.05  1793.42  1796.94  1807.51
                             1816.51  1817.30  1836.45  1842.32  1899.75
                             1918.44  1931.63  1952.83  1954.03  1969.91
                             1970.52  2013.75  3308.01  3577.12  3582.76
                             3606.71  3625.37  3630.78  3649.82  3657.89
                             3791.13  3799.14  3814.31  3816.64  3824.84
                             3829.31  3831.01  3837.29  3842.96  3852.20
                             3860.12  3861.72  3906.31  3915.08

 Zero-point correction=                           0.325411 (Hartree/Particle)
 Thermal correction to Energy=                    0.349820
 Thermal correction to Enthalpy=                  0.350764
 Thermal correction to Gibbs Free Energy=         0.271775
 Sum of electronic and zero-point Energies=             -0.469744
 Sum of electronic and thermal Energies=                -0.445335
 Sum of electronic and thermal Enthalpies=              -0.444391
 Sum of electronic and thermal Free Energies=           -0.523380

                     E (Thermal)             CV                S
                      KCal/Mol        Cal/Mol-Kelvin    Cal/Mol-Kelvin
 Total                  219.515             93.776            166.246
 Electronic               0.000              0.000              0.000
 Translational            0.889              2.981             43.384
 Rotational               0.889              2.981             34.666
 Vibrational            217.738             87.814             88.196
 Vibration     1          0.593              1.985              6.322
 Vibration     2          0.593              1.984              6.006
 Vibration     3          0.595              1.980              5.043
 Vibration     4          0.596              1.976              4.648
 Vibration     5          0.599              1.965              3.993
 Vibration     6          0.601              1.958              3.729
 Vibration     7          0.602              1.955              3.619
 Vibration     8          0.605              1.947              3.399
 Vibration     9          0.605              1.944              3.339
 Vibration    10          0.613              1.921              2.906
 Vibration    11          0.618              1.903              2.671
 Vibration    12          0.623              1.886              2.495
 Vibration    13          0.632              1.860              2.272
 Vibration    14          0.637              1.841              2.139
 Vibration    15          0.643              1.823              2.028
 Vibration    16          0.651              1.798              1.894
 Vibration    17          0.658              1.777              1.793
 Vibration    18          0.660              1.772              1.772
 Vibration    19          0.672              1.734              1.615
 Vibration    20          0.682              1.704              1.511
 Vibration    21          0.685              1.696              1.487
 Vibration    22          0.694              1.668              1.401
 Vibration    23          0.713              1.614              1.257
 Vibration    24          0.717              1.604              1.232
 Vibration    25          0.734              1.556              1.125
 Vibration    26          0.744              1.527              1.067
 Vibration    27          0.746              1.524              1.061
 Vibration    28          0.750              1.512              1.038
 Vibration    29          0.759              1.488              0.994
 Vibration    30          0.763              1.478              0.976
 Vibration    31          0.768              1.466              0.955
 Vibration    32          0.785              1.420              0.882
 Vibration    33          0.796              1.392              0.840
 Vibration    34          0.820              1.334              0.760
 Vibration    35          0.826              1.320              0.741
 Vibration    36          0.847              1.269              0.680
 Vibration    37          0.862              1.235              0.641
 Vibration    38          0.881              1.193              0.597
 Vibration    39          0.885              1.183              0.586
 Vibration    40          0.897              1.157              0.561
 Vibration    41          0.929              1.089              0.498
 Vibration    42          0.940              1.068              0.479
 Vibration    43          0.971              1.007              0.430
 Vibration    44          0.976              0.996              0.422

                           ! Non-Optimized Parameters !
 Normal termination of Gaussian 16 at Tue Jun 22 14:21:32 2021.
