 Gaussian 16, Revision B.01,
 Gaussian 16:  ES64L-G16RevB.01 20-Dec-2017

 --------------------------------------
 #P pm6 opt=loose freq int=(grid=99590)
 --------------------------------------

 ------------
 offspring-14
 ------------
 Symbolic Z-matrix:
 Charge =  0 Multiplicity = 1

 SCF Done:  E(RPM6) = -0.759885624965     A.U. after   14 cycles
 SCF Done:  E(RPM6) = -0.768129397784     A.U. after   13 cycles
 SCF Done:  E(RPM6) = -0.771248264399     A.U. after   13 cycles
 SCF Done:  E(RPM6) = -0.779781849761     A.U. after   13 cycles
 SCF Done:  E(RPM6) = -0.781043026227     A.U. after   13 cycles
 SCF Done:  E(RPM6) = -0.782830598855     A.U. after   12 cycles
 SCF Done:  E(RPM6) = -0.782920292216     A.U. after   13 cycles
 SCF Done:  E(RPM6) = -0.784985334373     A.U. after   12 cycles
 SCF Done:  E(RPM6) = -0.786022058697     A.U. after   12 cycles
 SCF Done:  E(RPM6) = -0.786521042194     A.U. after   12 cycles
 SCF Done:  E(RPM6) = -0.795069625006     A.U. after   11 cycles
 SCF Done:  E(RPM6) = -0.795114781874     A.U. after   11 cycles
 SCF Done:  E(RPM6) = -0.795126963429     A.U. after   10 cycles
 SCF Done:  E(RPM6) = -0.795135738063     A.U. after   10 cycles
 SCF Done:  E(RPM6) = -0.795144551534     A.U. after   10 cycles
 SCF Done:  E(RPM6) = -0.795151165781     A.U. after   10 cycles
 SCF Done:  E(RPM6) = -0.795153513342     A.U. after    9 cycles
 SCF Done:  E(RPM6) = -0.795155948641     A.U. after    9 cycles
 SCF Done:  E(RPM6) = -0.795157322208     A.U. after    9 cycles
 Optimization completed.
    -- Stationary point found.
 Normal termination of Gaussian 16 at Tue Jun 22 14:23:13 2021.

 -------------------------------------------------------------
 #P Geom=AllCheck Guess=TCheck SCRF=Check GenChk RPM6/ZDO Freq
 -------------------------------------------------------------

 Structure from the checkpoint file:  "/scratch-data/gaussian/Gau-3828.chk"
 ------------
 offspring-14
 ------------
 Charge =  0 Multiplicity = 1

                         Standard orientation:
 ---------------------------------------------------------------------
 Center     Atomic      Atomic             Coordinates (Angstroms)
 Number     Number       Type             X           Y           Z
 ---------------------------------------------------------------------
      1          8           0       -3.130134    0.528703    1.937298
      2          6           0       -3.733316    0.460106    0.638623
      3          6           0       -3.567346   -0.969596    0.073875
      4          8           0       -3.974689   -1.809366    1.161095
      5          6           0       -2.084825   -1.234858   -0.265841
      6          6           0       -1.629746   -0.251218   -1.360931
      7          8           0       -2.439671    0.917069   -1.430274
      8          6           0       -3.005771    1.503380   -0.238036
      9          6           0       -1.905833    2.268715    0.510607
     10          8           0       -1.055824    2.927791   -0.446169
     11          8           0        3.993150    1.654256   -0.190488
     12          6           0        3.022763    0.687020    0.247139
     13          6           0        1.632767    1.109586   -0.278173
     14          6           0        0.598859   -0.037797   -0.205095
     15          6           0        1.176309   -1.452866   -0.478594
     16          8           0        2.524325   -1.661337   -0.049781
     17          6           0        3.490122   -0.635730   -0.382360
     18          6           0        4.797206   -1.177772    0.234756
     19          8           0        5.409307   -0.243739    1.116891
     20          8           0        0.468649   -2.389613    0.331246
     21          8           0       -0.279891    0.231344   -1.318259
     22          8           0        1.262122    2.143695    0.626209
     23          8           0       -2.058502   -2.553704   -0.815145
     24          1           0       -4.813393    0.708962    0.756470
     25          1           0       -4.225345   -1.168753   -0.801047
     26          1           0       -3.748723   -2.749901    0.950008
     27          1           0       -1.455359   -1.187281    0.656009
     28          1           0       -1.713072   -0.654924   -2.401741
     29          1           0       -3.734299    2.208752   -0.712544
     30          1           0       -2.310772    3.086368    1.134406
     31          1           0       -1.277893    1.606302    1.140203
     32          1           0       -0.943239    2.325874   -1.249499
     33          1           0        3.030708    0.646579    1.363637
     34          1           0        1.689606    1.510315   -1.318124
     35          1           0        0.045985   -0.004498    0.762618
     36          1           0        1.049094   -1.779440   -1.532313
     37          1           0        3.553291   -0.556575   -1.489500
     38          1           0        4.589825   -2.053742    0.886906
     39          1           0        5.517633   -1.462289   -0.553190
     40          1           0        5.549041    0.627750    0.656121
     41          1           0        0.522935    2.727552    0.230350
     42          1           0        3.754197    2.539360    0.184698
     43          1           0       -1.194611   -2.996318   -0.582940
     44          1           0        1.036834   -2.691297    1.086915
     45          1           0       -3.420330   -0.257410    2.475753
 ---------------------------------------------------------------------

 SCF Done:  E(RPM6) = -0.795157322219     A.U. after    2 cycles

 The electronic state is 1-A.
 Alpha  occ. eigenvalues --   -1.17714  -1.16428  -1.14660  -1.14108  -1.12764
 Alpha  occ. eigenvalues --   -1.11657  -1.10730  -1.10331  -1.09330  -1.09133
 Alpha  occ. eigenvalues --   -1.07243  -1.02929  -1.00704  -0.99566  -0.98623
 Alpha  occ. eigenvalues --   -0.92583  -0.91695  -0.88563  -0.85337  -0.83604
 Alpha  occ. eigenvalues --   -0.82387  -0.77268  -0.75522  -0.74059  -0.72177
 Alpha  occ. eigenvalues --   -0.70978  -0.70010  -0.68713  -0.68210  -0.66600
 Alpha  occ. eigenvalues --   -0.64977  -0.64831  -0.64297  -0.63168  -0.62292
 Alpha  occ. eigenvalues --   -0.61608  -0.60849  -0.60250  -0.59573  -0.58677
 Alpha  occ. eigenvalues --   -0.56631  -0.56297  -0.55498  -0.55133  -0.54113
 Alpha  occ. eigenvalues --   -0.53105  -0.51888  -0.51373  -0.50265  -0.50153
 Alpha  occ. eigenvalues --   -0.49523  -0.49029  -0.48736  -0.48292  -0.47216
 Alpha  occ. eigenvalues --   -0.47011  -0.45871  -0.45259  -0.43381  -0.42800
 Alpha  occ. eigenvalues --   -0.42472  -0.41617  -0.41480  -0.40750  -0.40447
 Alpha  occ. eigenvalues --   -0.39556  -0.39346  -0.38982
 Alpha virt. eigenvalues --    0.00920   0.02275   0.02977   0.04289   0.05154
 Alpha virt. eigenvalues --    0.05494   0.06120   0.07058   0.07249   0.07273
 Alpha virt. eigenvalues --    0.08061   0.08316   0.08590   0.08879   0.09506

 Mulliken charges:
               1
     1  O   -0.559966
     2  C    0.072435
     3  C    0.083789
     4  O   -0.559533
     5  C   -0.012918
     6  C    0.318689
     7  O   -0.469470
     8  C    0.066731
     9  C   -0.044236
    10  O   -0.558115
    11  O   -0.561427
    12  C    0.075599
    13  C    0.087525
    14  C   -0.021045
    15  C    0.345634
    16  O   -0.512744
    17  C    0.077552
    18  C   -0.018338
    19  O   -0.537825
    20  O   -0.596193
    21  O   -0.509347
    22  O   -0.593870
    23  O   -0.550467
    24  H    0.146535
    25  H    0.153740
    26  H    0.340035
    27  H    0.172942
    28  H    0.175942
    29  H    0.167245
    30  H    0.162986
    31  H    0.155588
    32  H    0.345083
    33  H    0.171806
    34  H    0.153171
    35  H    0.170584
    36  H    0.148008
    37  H    0.140574
    38  H    0.170486
    39  H    0.129942
    40  H    0.330735
    41  H    0.359232
    42  H    0.338377
    43  H    0.343555
    44  H    0.356103
    45  H    0.344865
 Sum of Mulliken charges =   0.00000

 Dipole moment (field-independent basis, Debye):
    X=             -1.7338    Y=             -1.8482    Z=             -1.2232  Tot=              2.8139
 N-N= 1.399435964920D+03 E-N=-2.400886069953D+03  KE=-3.045686670396D+02
  Exact polarizability: 154.315   2.087 133.075   1.763  -0.197 103.699
 Approx polarizability:  99.444   2.307  98.932   1.692  -1.265  84.261
 Leave Link  601 at Tue Jun 22 14:23:14 2021, MaxMem=  2147483648 cpu:               0.2 elap:               0.0
 (Enter /home/matma/Programs/gaussian/G16_x86_SSE4/tar/g16/l701.exe)
 ... and contract with generalized density number  0.
 Compute integral second derivatives.
 Leave Link  701 at Tue Jun 22 14:23:14 2021, MaxMem=  2147483648 cpu:               0.6 elap:               0.1
 (Enter /home/matma/Programs/gaussian/G16_x86_SSE4/tar/g16/l702.exe)
 L702 exits ... SP integral derivatives will be done elsewhere.

                      1                      2                      3
                      A                      A                      A
 Frequencies --     23.2168                27.4029                44.6194
 Red. masses --      6.2941                 4.9254                 5.6145
 Frc consts  --      0.0020                 0.0022                 0.0066
 IR Inten    --      0.1786                 0.6806                 0.2497

                      4                      5                      6
                      A                      A                      A
 Frequencies --     54.3519                75.5984                86.8803
 Red. masses --      6.0281                 5.9313                 5.6979
 Frc consts  --      0.0105                 0.0200                 0.0253
 IR Inten    --      4.3679                 4.4347                 1.5767

                      7                      8                      9
                      A                      A                      A
 Frequencies --     92.1193               103.7278               106.1100
 Red. masses --      4.6892                 4.7618                 4.5785
 Frc consts  --      0.0234                 0.0302                 0.0304
 IR Inten    --      0.5143                 4.1901                 3.1016

                     10                     11                     12
                      A                      A                      A
 Frequencies --    132.8122               150.3479               164.5323
 Red. masses --      5.8768                 3.8141                 6.4211
 Frc consts  --      0.0611                 0.0508                 0.1024
 IR Inten    --      9.6401                 5.3621                 5.4281

                     13                     14                     15
                      A                      A                      A
 Frequencies --    185.5201               199.4558               211.9260
 Red. masses --      6.3281                 5.8266                 5.4418
 Frc consts  --      0.1283                 0.1366                 0.1440
 IR Inten    --      2.9031                20.6421                 0.3127

                     16                     17                     18
                      A                      A                      A
 Frequencies --    228.2011               241.0359               244.2516
 Red. masses --      5.8110                 1.4527                 4.4027
 Frc consts  --      0.1783                 0.0497                 0.1548
 IR Inten    --      5.0218                95.8146                 7.8848

                     19                     20                     21
                      A                      A                      A
 Frequencies --    267.0976               283.6769               287.4795
 Red. masses --      5.4230                 5.3730                 2.8312
 Frc consts  --      0.2279                 0.2548                 0.1379
 IR Inten    --      8.1426                 4.0495                71.8427

                     22                     23                     24
                      A                      A                      A
 Frequencies --    302.8821               330.3342               335.5187
 Red. masses --      6.0233                 3.2228                 1.5073
 Frc consts  --      0.3256                 0.2072                 0.1000
 IR Inten    --     15.0106                32.4976               107.5669

                     25                     26                     27
                      A                      A                      A
 Frequencies --    359.3162               372.6036               373.8850
 Red. masses --      6.5905                 1.4443                 1.9833
 Frc consts  --      0.5013                 0.1181                 0.1633
 IR Inten    --      4.8942               144.0186                34.9372

                     28                     29                     30
                      A                      A                      A
 Frequencies --    380.5645               391.5204               396.1968
 Red. masses --      3.2830                 1.9572                 3.0972
 Frc consts  --      0.2801                 0.1768                 0.2864
 IR Inten    --     14.3839                84.8480                40.6738

                     31                     32                     33
                      A                      A                      A
 Frequencies --    401.9737               422.4242               435.3628
 Red. masses --      3.3842                 1.8214                 2.5560
 Frc consts  --      0.3222                 0.1915                 0.2854
 IR Inten    --     29.5732                41.4208                18.1498

                     34                     35                     36
                      A                      A                      A
 Frequencies --    461.7116               468.5037               491.2119
 Red. masses --      3.6896                 2.8351                 3.3418
 Frc consts  --      0.4634                 0.3666                 0.4751
 IR Inten    --      1.1092                12.0422                58.0655

                     37                     38                     39
                      A                      A                      A
 Frequencies --    506.3222               524.9966               529.9378
 Red. masses --      2.1897                 1.4880                 2.4899
 Frc consts  --      0.3307                 0.2416                 0.4120
 IR Inten    --    118.1398                93.8409                12.4285

                     40                     41                     42
                      A                      A                      A
 Frequencies --    541.6128               572.8915               583.1296
 Red. masses --      1.7334                 3.4463                 3.7519
 Frc consts  --      0.2996                 0.6664                 0.7517
 IR Inten    --     47.3656                27.0945                24.4621

                     43                     44                     45
                      A                      A                      A
 Frequencies --    611.2959               616.9256               626.0569
 Red. masses --      4.7350                 2.9806                 1.2437
 Frc consts  --      1.0425                 0.6684                 0.2872
 IR Inten    --     18.1156                 1.8979               151.9119

                     46                     47                     48
                      A                      A                      A
 Frequencies --    657.9099               736.9723               837.0294
 Red. masses --      5.0871                 3.8709                 2.7509
 Frc consts  --      1.2973                 1.2387                 1.1355
 IR Inten    --      7.6081                13.1228                34.9087

                     49                     50                     51
                      A                      A                      A
 Frequencies --    874.5888               936.4066               963.9409
 Red. masses --      1.8154                 2.2207                 3.9554
 Frc consts  --      0.8181                 1.1473                 2.1654
 IR Inten    --     14.1822                17.3903                14.5611

                     52                     53                     54
                      A                      A                      A
 Frequencies --    982.9456               987.8044              1005.6686
 Red. masses --      1.9461                 2.7930                 3.2872
 Frc consts  --      1.1078                 1.6057                 1.9588
 IR Inten    --     19.2622                19.9976                 4.1178

                     55                     56                     57
                      A                      A                      A
 Frequencies --   1007.9983              1034.8168              1048.0681
 Red. masses --      3.5217                 2.9943                 2.4584
 Frc consts  --      2.1083                 1.8892                 1.5910
 IR Inten    --    191.9469               114.2524               113.9743

                     58                     59                     60
                      A                      A                      A
 Frequencies --   1060.5707              1065.4531              1081.7919
 Red. masses --      2.6830                 2.1638                 1.8391
 Frc consts  --      1.7781                 1.4472                 1.2681
 IR Inten    --    147.6188               215.0815                20.9591

                     61                     62                     63
                      A                      A                      A
 Frequencies --   1085.7048              1091.3061              1097.3850
 Red. masses --      1.9949                 1.8250                 2.5739
 Frc consts  --      1.3854                 1.2806                 1.8262
 IR Inten    --     31.0027                39.3453                48.4882

                     64                     65                     66
                      A                      A                      A
 Frequencies --   1100.8810              1105.7009              1111.0279
 Red. masses --      2.5406                 1.8338                 2.1728
 Frc consts  --      1.8142                 1.3209                 1.5802
 IR Inten    --     85.7877               117.4147                 6.3271

                     67                     68                     69
                      A                      A                      A
 Frequencies --   1115.7547              1121.0352              1135.0995
 Red. masses --      2.3145                 2.5963                 2.1654
 Frc consts  --      1.6977                 1.9224                 1.6439
 IR Inten    --     22.7377                37.7615                49.6376

                     70                     71                     72
                      A                      A                      A
 Frequencies --   1137.7243              1141.5551              1145.2117
 Red. masses --      2.2318                 1.9722                 1.6176
 Frc consts  --      1.7021                 1.5142                 1.2500
 IR Inten    --     48.6832                22.7322                19.1378

                     73                     74                     75
                      A                      A                      A
 Frequencies --   1149.4597              1158.5518              1163.8868
 Red. masses --      1.7482                 1.4352                 1.7517
 Frc consts  --      1.3609                 1.1350                 1.3980
 IR Inten    --     24.4336                35.7851                22.5592

                     76                     77                     78
                      A                      A                      A
 Frequencies --   1167.5892              1175.2269              1179.1310
 Red. masses --      1.4731                 1.3788                 1.6759
 Frc consts  --      1.1832                 1.1220                 1.3729
 IR Inten    --      2.4422                17.5444                48.3377

                     79                     80                     81
                      A                      A                      A
 Frequencies --   1183.3559              1187.8328              1191.8725
 Red. masses --      1.5183                 1.5934                 1.5898
 Frc consts  --      1.2527                 1.3246                 1.3306
 IR Inten    --      8.1092                47.3960                 3.2927

                     82                     83                     84
                      A                      A                      A
 Frequencies --   1196.5637              1196.7459              1199.9549
 Red. masses --      1.2813                 1.2672                 1.6201
 Frc consts  --      1.0809                 1.0693                 1.3744
 IR Inten    --      4.8288                12.6262                20.7730

                     85                     86                     87
                      A                      A                      A
 Frequencies --   1205.9560              1207.8482              1215.7259
 Red. masses --      1.3520                 1.3554                 1.8502
 Frc consts  --      1.1585                 1.1651                 1.6112
 IR Inten    --     60.0447                16.0263                71.1800

                     88                     89                     90
                      A                      A                      A
 Frequencies --   1222.1117              1225.6545              1235.5582
 Red. masses --      1.4729                 1.5360                 1.7698
 Frc consts  --      1.2961                 1.3595                 1.5919
 IR Inten    --      8.5313                17.6362                 2.5526

                     91                     92                     93
                      A                      A                      A
 Frequencies --   1239.0620              1244.8312              1246.2785
 Red. masses --      1.6946                 1.5645                 1.5182
 Frc consts  --      1.5329                 1.4284                 1.3894
 IR Inten    --     12.5113                25.5723                27.3743

                     94                     95                     96
                      A                      A                      A
 Frequencies --   1249.0599              1256.3015              1262.6764
 Red. masses --      1.5457                 1.4253                 1.2496
 Frc consts  --      1.4208                 1.3253                 1.1739
 IR Inten    --     60.2374                 6.1495                11.2073

                     97                     98                     99
                      A                      A                      A
 Frequencies --   1263.1180              1276.3576              1280.1939
 Red. masses --      1.2880                 1.6997                 1.3617
 Frc consts  --      1.2107                 1.6314                 1.3149
 IR Inten    --     17.4592                 8.2241                 0.3410

                    100                    101                    102
                      A                      A                      A
 Frequencies --   1320.1667              1333.2965              1342.5288
 Red. masses --      1.6801                 1.6355                 1.7174
 Frc consts  --      1.7253                 1.7129                 1.8238
 IR Inten    --     17.8635                51.9273                32.8879

                    103                    104                    105
                      A                      A                      A
 Frequencies --   1356.9980              1357.9830              1368.9662
 Red. masses --      1.7779                 1.6235                 1.5833
 Frc consts  --      1.9290                 1.7639                 1.7482
 IR Inten    --     46.7063                28.0260                27.2493

                    106                    107                    108
                      A                      A                      A
 Frequencies --   1369.6609              1399.6502              2299.2774
 Red. masses --      1.2152                 1.2146                 1.0605
 Frc consts  --      1.3432                 1.4019                 3.3033
 IR Inten    --     13.9295                43.3161               791.4896

                    109                    110                    111
                      A                      A                      A
 Frequencies --   2486.5229              2491.0170              2506.4633
 Red. masses --      1.0543                 1.0558                 1.0541
 Frc consts  --      3.8406                 3.8600                 3.9018
 IR Inten    --    256.0651               353.5210               248.4176

                    112                    113                    114
                      A                      A                      A
 Frequencies --   2520.1695              2523.5531              2536.8875
 Red. masses --      1.0547                 1.0527                 1.0545
 Frc consts  --      3.9466                 3.9500                 3.9986
 IR Inten    --    100.6054               392.6453               390.2334

                    115                    116                    117
                      A                      A                      A
 Frequencies --   2542.5526              2635.3138              2640.5270
 Red. masses --      1.0546                 1.0630                 1.0782
 Frc consts  --      4.0169                 4.3497                 4.4291
 IR Inten    --    251.0623                26.8478                13.5011

                    118                    119                    120
                      A                      A                      A
 Frequencies --   2651.3642              2652.7324              2658.3618
 Red. masses --      1.0621                 1.0820                 1.0602
 Frc consts  --      4.3989                 4.4862                 4.4143
 IR Inten    --     83.3906                46.8223                39.8727

                    121                    122                    123
                      A                      A                      A
 Frequencies --   2661.6186              2662.8904              2667.1665
 Red. masses --      1.0664                 1.0670                 1.0661
 Frc consts  --      4.4509                 4.4577                 4.4682
 IR Inten    --     56.0096                64.2815                26.4262

                    124                    125                    126
                      A                      A                      A
 Frequencies --   2671.0452              2677.3310              2682.9680
 Red. masses --      1.0702                 1.0680                 1.0680
 Frc consts  --      4.4986                 4.5104                 4.5295
 IR Inten    --     38.4067                65.0191               186.0859

                    127                    128                    129
                      A                      A                      A
 Frequencies --   2683.9935              2715.2318              2721.0312
 Red. masses --      1.0733                 1.0447                 1.0489
 Frc consts  --      4.5555                 4.5381                 4.5755
 IR Inten    --    154.7057                45.7106                48.7130

 - Thermochemistry -
 -------------------
 Temperature   298.150 Kelvin.  Pressure   1.00000 Atm.
 Atom     1 has atomic number  8 and mass  15.99491

 Molecular mass:   342.11621 amu.
 Principal axes and moments of inertia in atomic units:
                           1         2         3
     Eigenvalues --  3883.70435********************
           X            0.99999  -0.00281  -0.00273
           Y            0.00282   0.99999   0.00281
           Z            0.00273  -0.00282   0.99999
 This molecule is an asymmetric top.
 Rotational symmetry number  1.
 Warning -- assumption of classical behavior for rotation
           may cause significant error
 Rotational temperatures (Kelvin)      0.02230     0.00792     0.00666
 Rotational constants (GHZ):           0.46470     0.16507     0.13887
 Zero-point vibrational energy     854349.4 (Joules/Mol)
                                  204.19441 (Kcal/Mol)
 Warning -- explicit consideration of  44 degrees of freedom as
           vibrations may cause significant error
 Vibrational temperatures:     33.40    39.43    64.20    78.20   108.77
          (Kelvin)            125.00   132.54   149.24   152.67   191.09
                              216.32   236.73   266.92   286.97   304.91
                              328.33   346.80   351.42   384.29   408.15
                              413.62   435.78   475.28   482.74   516.98
                              536.09   537.94   547.55   563.31   570.04
                              578.35   607.77   626.39   664.30   674.07
                              706.74   728.48   755.35   762.46   779.26
                              824.26   838.99   879.52   887.62   900.76
                              946.59  1060.34  1204.30  1258.34  1347.28
                             1386.90  1414.24  1421.23  1446.93  1450.28
                             1488.87  1507.94  1525.92  1532.95  1556.46
                             1562.09  1570.15  1578.89  1583.92  1590.86
                             1598.52  1605.32  1612.92  1633.16  1636.93
                             1642.44  1647.70  1653.82  1666.90  1674.57
                             1679.90  1690.89  1696.51  1702.59  1709.03
                             1714.84  1721.59  1721.85  1726.47  1735.10
                             1737.82  1749.16  1758.35  1763.44  1777.69
                             1782.73  1791.03  1793.12  1797.12  1807.54
                             1816.71  1817.35  1836.39  1841.91  1899.43
                             1918.32  1931.60  1952.42  1953.83  1969.64
                             1970.64  2013.78  3308.15  3577.55  3584.02
                             3606.24  3625.96  3630.83  3650.02  3658.17
                             3791.63  3799.13  3814.72  3816.69  3824.79
                             3829.48  3831.31  3837.46  3843.04  3852.08
                             3860.19  3861.67  3906.61  3914.96

 Zero-point correction=                           0.325405 (Hartree/Particle)
 Thermal correction to Energy=                    0.349817
 Thermal correction to Enthalpy=                  0.350762
 Thermal correction to Gibbs Free Energy=         0.271758
 Sum of electronic and zero-point Energies=             -0.469753
 Sum of electronic and thermal Energies=                -0.445340
 Sum of electronic and thermal Enthalpies=              -0.444396
 Sum of electronic and thermal Free Energies=           -0.523399

                     E (Thermal)             CV                S
                      KCal/Mol        Cal/Mol-Kelvin    Cal/Mol-Kelvin
 Total                  219.514             93.787            166.276
 Electronic               0.000              0.000              0.000
 Translational            0.889              2.981             43.384
 Rotational               0.889              2.981             34.666
 Vibrational            217.736             87.825             88.226
 Vibration     1          0.593              1.985              6.338
 Vibration     2          0.593              1.984              6.009
 Vibration     3          0.595              1.980              5.043
 Vibration     4          0.596              1.976              4.652
 Vibration     5          0.599              1.965              4.002
 Vibration     6          0.601              1.958              3.729
 Vibration     7          0.602              1.955              3.615
 Vibration     8          0.605              1.946              3.383
 Vibration     9          0.605              1.944              3.339
 Vibration    10          0.613              1.921              2.905
 Vibration    11          0.618              1.902              2.668
 Vibration    12          0.623              1.886              2.497
 Vibration    13          0.632              1.860              2.272
 Vibration    14          0.638              1.841              2.138
 Vibration    15          0.643              1.823              2.027
 Vibration    16          0.651              1.798              1.893
 Vibration    17          0.658              1.778              1.795
 Vibration    18          0.660              1.772              1.772
 Vibration    19          0.672              1.734              1.615
 Vibration    20          0.682              1.704              1.511
 Vibration    21          0.685              1.697              1.489
 Vibration    22          0.694              1.668              1.401
 Vibration    23          0.713              1.615              1.258
 Vibration    24          0.717              1.605              1.233
 Vibration    25          0.734              1.556              1.125
 Vibration    26          0.744              1.528              1.069
 Vibration    27          0.745              1.526              1.064
 Vibration    28          0.750              1.512              1.037
 Vibration    29          0.759              1.488              0.994
 Vibration    30          0.763              1.478              0.977
 Vibration    31          0.768              1.466              0.955
 Vibration    32          0.785              1.421              0.884
 Vibration    33          0.796              1.393              0.841
 Vibration    34          0.819              1.335              0.761
 Vibration    35          0.826              1.320              0.742
 Vibration    36          0.847              1.270              0.680
 Vibration    37          0.862              1.236              0.643
 Vibration    38          0.880              1.195              0.598
 Vibration    39          0.885              1.184              0.587
 Vibration    40          0.897              1.158              0.562
 Vibration    41          0.929              1.090              0.499
 Vibration    42          0.940              1.068              0.480
 Vibration    43          0.970              1.008              0.431
 Vibration    44          0.977              0.996              0.421

                           ! Non-Optimized Parameters !
 Normal termination of Gaussian 16 at Tue Jun 22 14:23:14 2021.
