 Gaussian 16, Revision B.01,
 Gaussian 16:  ES64L-G16RevB.01 20-Dec-2017

 --------------------------------------
 #P pm6 opt=loose freq int=(grid=99590)
 --------------------------------------

 ----------
 initial-06
 ----------
 Symbolic Z-matrix:
 Charge =  0 Multiplicity = 1

 SCF Done:  E(RPM6) = -0.666372360338     A.U. after   15 cycles
 SCF Done:  E(RPM6) = -0.709960144471     A.U. after   13 cycles
 SCF Done:  E(RPM6) = -0.748703237822     A.U. after   13 cycles
 SCF Done:  E(RPM6) = -0.751103766654     A.U. after   13 cycles
 SCF Done:  E(RPM6) = -0.757426453145     A.U. after   13 cycles
 SCF Done:  E(RPM6) = -0.762569113528     A.U. after   12 cycles
 SCF Done:  E(RPM6) = -0.762784411421     A.U. after   12 cycles
 SCF Done:  E(RPM6) = -0.767704178780     A.U. after   12 cycles
 SCF Done:  E(RPM6) = -0.764407406302     A.U. after   12 cycles
 SCF Done:  E(RPM6) = -0.770896121998     A.U. after   12 cycles
 SCF Done:  E(RPM6) = -0.787334174469     A.U. after   11 cycles
 SCF Done:  E(RPM6) = -0.787653903818     A.U. after   12 cycles
 SCF Done:  E(RPM6) = -0.787755517620     A.U. after   12 cycles
 SCF Done:  E(RPM6) = -0.787820251906     A.U. after   11 cycles
 SCF Done:  E(RPM6) = -0.787835772265     A.U. after   11 cycles
 SCF Done:  E(RPM6) = -0.787839526715     A.U. after    9 cycles
 SCF Done:  E(RPM6) = -0.787841672623     A.U. after    9 cycles
 SCF Done:  E(RPM6) = -0.787842045898     A.U. after    9 cycles
 SCF Done:  E(RPM6) = -0.787842384665     A.U. after    9 cycles
 Optimization completed.
    -- Stationary point found.
 Normal termination of Gaussian 16 at Tue Jun 22 14:19:06 2021.

 -------------------------------------------------------------
 #P Geom=AllCheck Guess=TCheck SCRF=Check GenChk RPM6/ZDO Freq
 -------------------------------------------------------------

 Structure from the checkpoint file:  "/scratch-data/gaussian/Gau-4162.chk"
 ----------
 initial-06
 ----------
 Charge =  0 Multiplicity = 1

                         Standard orientation:
 ---------------------------------------------------------------------
 Center     Atomic      Atomic             Coordinates (Angstroms)
 Number     Number       Type             X           Y           Z
 ---------------------------------------------------------------------
      1          8           0        2.538842   -0.921105    1.699182
      2          6           0        3.385309   -0.521872    0.612962
      3          6           0        3.412570    1.018057    0.486984
      4          8           0        3.693085    1.441263    1.828126
      5          6           0        2.055087    1.593376    0.038334
      6          6           0        1.437322    0.816374   -1.149770
      7          8           0        1.482623   -0.610989   -0.925769
      8          6           0        2.786612   -1.169620   -0.650832
      9          6           0        2.496856   -2.671216   -0.468876
     10          8           0        2.846279   -3.368105   -1.663642
     11          8           0       -2.710901   -2.244777    0.444592
     12          6           0       -2.505853   -0.822564    0.543160
     13          6           0       -1.055710   -0.500289    0.135654
     14          6           0       -0.847822    0.981908   -0.226070
     15          6           0       -2.064302    1.759642   -0.793817
     16          8           0       -3.345804    1.217035   -0.453994
     17          6           0       -3.505473   -0.218933   -0.459396
     18          6           0       -4.979633   -0.399872   -0.037373
     19          8           0       -5.123426   -1.260690    1.087267
     20          8           0       -2.107621    3.033938   -0.176410
     21          8           0        0.068529    1.082236   -1.353536
     22          8           0       -0.305764   -0.786689    1.320371
     23          8           0        2.377720    2.916132   -0.407556
     24          1           0        4.409950   -0.909031    0.828537
     25          1           0        4.227491    1.376700   -0.184195
     26          1           0        3.707289    2.427353    1.873979
     27          1           0        1.344656    1.647527    0.900593
     28          1           0        1.887453    1.064464   -2.136505
     29          1           0        3.443653   -0.995547   -1.534405
     30          1           0        3.145752   -3.130994    0.303012
     31          1           0        1.435245   -2.842965   -0.207325
     32          1           0        2.179187   -3.200455   -2.365224
     33          1           0       -2.714768   -0.499441    1.590885
     34          1           0       -0.706722   -1.155804   -0.699924
     35          1           0       -0.423442    1.527748    0.653027
     36          1           0       -1.997385    1.936474   -1.888964
     37          1           0       -3.317629   -0.592365   -1.489430
     38          1           0       -5.406677    0.563739    0.316325
     39          1           0       -5.585183   -0.790146   -0.874816
     40          1           0       -4.672589   -2.131670    0.916417
     41          1           0        0.672965   -0.895766    1.099751
     42          1           0       -2.115581   -2.698848    1.089879
     43          1           0        1.552556    3.416763   -0.617625
     44          1           0       -2.763323    3.033655    0.567662
     45          1           0        2.698826   -0.327319    2.483534
 ---------------------------------------------------------------------

 SCF Done:  E(RPM6) = -0.787842384677     A.U. after    2 cycles

 The electronic state is 1-A.
 Alpha  occ. eigenvalues --   -1.17846  -1.15885  -1.14613  -1.13835  -1.13524
 Alpha  occ. eigenvalues --   -1.11973  -1.10777  -1.10252  -1.09797  -1.09406
 Alpha  occ. eigenvalues --   -1.07758  -1.02476  -1.01332  -0.99646  -0.98740
 Alpha  occ. eigenvalues --   -0.92699  -0.91239  -0.87259  -0.86139  -0.83874
 Alpha  occ. eigenvalues --   -0.81809  -0.77823  -0.76135  -0.73163  -0.72702
 Alpha  occ. eigenvalues --   -0.71034  -0.69319  -0.68565  -0.67490  -0.67348
 Alpha  occ. eigenvalues --   -0.66305  -0.65454  -0.63959  -0.63037  -0.62433
 Alpha  occ. eigenvalues --   -0.61414  -0.60542  -0.59718  -0.58641  -0.57875
 Alpha  occ. eigenvalues --   -0.57131  -0.55632  -0.55202  -0.54272  -0.53843
 Alpha  occ. eigenvalues --   -0.53609  -0.52700  -0.52196  -0.51375  -0.50467
 Alpha  occ. eigenvalues --   -0.49526  -0.48967  -0.48211  -0.48047  -0.47036
 Alpha  occ. eigenvalues --   -0.46425  -0.45332  -0.44971  -0.43454  -0.43097
 Alpha  occ. eigenvalues --   -0.42759  -0.41844  -0.41042  -0.40972  -0.40193
 Alpha  occ. eigenvalues --   -0.39581  -0.39023  -0.38668
 Alpha virt. eigenvalues --    0.01115   0.02319   0.03467   0.03975   0.05022
 Alpha virt. eigenvalues --    0.06021   0.06184   0.06777   0.06957   0.07602
 Alpha virt. eigenvalues --    0.07860   0.08110   0.08360   0.08780   0.09464

 Mulliken charges:
               1
     1  O   -0.554350
     2  C    0.066811
     3  C    0.079708
     4  O   -0.557373
     5  C   -0.030911
     6  C    0.328392
     7  O   -0.520822
     8  C    0.068493
     9  C   -0.017111
    10  O   -0.532501
    11  O   -0.563276
    12  C    0.075090
    13  C    0.068546
    14  C   -0.036204
    15  C    0.374230
    16  O   -0.514492
    17  C    0.077758
    18  C   -0.018002
    19  O   -0.541283
    20  O   -0.552441
    21  O   -0.448279
    22  O   -0.584981
    23  O   -0.545445
    24  H    0.152408
    25  H    0.152436
    26  H    0.337643
    27  H    0.164273
    28  H    0.153682
    29  H    0.146756
    30  H    0.169471
    31  H    0.148590
    32  H    0.314715
    33  H    0.168706
    34  H    0.166068
    35  H    0.164664
    36  H    0.157667
    37  H    0.139907
    38  H    0.171057
    39  H    0.128702
    40  H    0.330304
    41  H    0.354143
    42  H    0.334617
    43  H    0.332229
    44  H    0.342003
    45  H    0.348402
 Sum of Mulliken charges =  -0.00000

 Dipole moment (field-independent basis, Debye):
    X=              2.8825    Y=              1.2947    Z=             -1.2625  Tot=              3.4028
 N-N= 1.382217746428D+03 E-N=-2.366640365983D+03  KE=-3.043826022664D+02
  Exact polarizability: 146.745  -1.273 139.044   1.686  -2.840 107.602
 Approx polarizability:  94.615  -2.076 101.549   0.406  -3.571  84.100
 Leave Link  601 at Tue Jun 22 14:19:07 2021, MaxMem=  2147483648 cpu:               0.2 elap:               0.0
 (Enter /home/matma/Programs/gaussian/G16_x86_SSE4/tar/g16/l701.exe)
 ... and contract with generalized density number  0.
 Compute integral second derivatives.
 Leave Link  701 at Tue Jun 22 14:19:07 2021, MaxMem=  2147483648 cpu:               0.6 elap:               0.1
 (Enter /home/matma/Programs/gaussian/G16_x86_SSE4/tar/g16/l702.exe)
 L702 exits ... SP integral derivatives will be done elsewhere.

                      1                      2                      3
                      A                      A                      A
 Frequencies --     12.1685                21.7666                25.2127
 Red. masses --      6.4934                 5.1976                 4.3305
 Frc consts  --      0.0006                 0.0015                 0.0016
 IR Inten    --      0.6244                 1.9047                 2.7722

                      4                      5                      6
                      A                      A                      A
 Frequencies --     34.5852                42.3237                58.9473
 Red. masses --      5.1383                 6.1722                 5.6848
 Frc consts  --      0.0036                 0.0065                 0.0116
 IR Inten    --      0.5342                 3.6880                 0.7456

                      7                      8                      9
                      A                      A                      A
 Frequencies --     81.9155                90.6547                93.4752
 Red. masses --      6.1298                 5.4636                 4.3266
 Frc consts  --      0.0242                 0.0265                 0.0223
 IR Inten    --      0.6223                 4.9047                 0.9025

                     10                     11                     12
                      A                      A                      A
 Frequencies --     98.3487               131.3419               167.1590
 Red. masses --      5.6706                 5.5773                 3.9795
 Frc consts  --      0.0323                 0.0567                 0.0655
 IR Inten    --      3.8132                 4.4389                 4.6326

                     13                     14                     15
                      A                      A                      A
 Frequencies --    171.0744               185.2796               208.3813
 Red. masses --      6.6740                 6.1832                 6.9441
 Frc consts  --      0.1151                 0.1251                 0.1777
 IR Inten    --      2.0281                 0.7291                 2.9556

                     16                     17                     18
                      A                      A                      A
 Frequencies --    227.3021               244.4792               249.9080
 Red. masses --      4.7244                 3.8523                 1.9816
 Frc consts  --      0.1438                 0.1357                 0.0729
 IR Inten    --      0.2206                 5.6607                52.2063

                     19                     20                     21
                      A                      A                      A
 Frequencies --    253.8569               269.6633               284.5316
 Red. masses --      3.2626                 3.7530                 4.2614
 Frc consts  --      0.1239                 0.1608                 0.2033
 IR Inten    --     19.0663                19.3777                46.6834

                     22                     23                     24
                      A                      A                      A
 Frequencies --    288.7495               301.3506               312.5155
 Red. masses --      2.2659                 1.3256                 5.0378
 Frc consts  --      0.1113                 0.0709                 0.2899
 IR Inten    --     44.4232               131.3502                28.5405

                     25                     26                     27
                      A                      A                      A
 Frequencies --    318.7606               343.1177               350.2817
 Red. masses --      5.8110                 1.3670                 1.2026
 Frc consts  --      0.3479                 0.0948                 0.0869
 IR Inten    --     23.8800                38.8462               155.1709

                     28                     29                     30
                      A                      A                      A
 Frequencies --    353.0646               371.2087               385.8515
 Red. masses --      2.1430                 1.9667                 2.6785
 Frc consts  --      0.1574                 0.1597                 0.2350
 IR Inten    --    136.1349                46.4673                28.4794

                     31                     32                     33
                      A                      A                      A
 Frequencies --    394.1443               397.8510               407.0036
 Red. masses --      2.0763                 3.5838                 1.7718
 Frc consts  --      0.1900                 0.3342                 0.1729
 IR Inten    --     31.1462                25.2920                51.5092

                     34                     35                     36
                      A                      A                      A
 Frequencies --    428.1959               442.9596               478.2920
 Red. masses --      4.4194                 5.1001                 3.6946
 Frc consts  --      0.4774                 0.5896                 0.4980
 IR Inten    --      9.3128                 6.0858                21.9542

                     37                     38                     39
                      A                      A                      A
 Frequencies --    483.0783               503.7736               530.9459
 Red. masses --      3.6153                 3.3016                 1.4947
 Frc consts  --      0.4971                 0.4937                 0.2483
 IR Inten    --      6.7364                23.7388               101.2096

                     40                     41                     42
                      A                      A                      A
 Frequencies --    541.5145               560.8693               562.0027
 Red. masses --      3.4355                 1.9561                 1.6012
 Frc consts  --      0.5935                 0.3626                 0.2980
 IR Inten    --     34.3777                47.7453                99.8710

                     43                     44                     45
                      A                      A                      A
 Frequencies --    581.4065               606.6686               637.9734
 Red. masses --      3.1529                 4.9031                 4.2148
 Frc consts  --      0.6280                 1.0632                 1.0107
 IR Inten    --     15.4949                 5.9740                52.1168

                     46                     47                     48
                      A                      A                      A
 Frequencies --    658.3451               736.8909               871.5838
 Red. masses --      5.6080                 5.6868                 1.7926
 Frc consts  --      1.4321                 1.8194                 0.8023
 IR Inten    --      7.0422                 3.5240                 5.5987

                     49                     50                     51
                      A                      A                      A
 Frequencies --    875.5462               931.7642               980.2654
 Red. masses --      1.6394                 3.3319                 3.1633
 Frc consts  --      0.7405                 1.7043                 1.7909
 IR Inten    --     19.7905                15.6819                 7.1206

                     52                     53                     54
                      A                      A                      A
 Frequencies --    983.1390               998.4425              1001.9349
 Red. masses --      3.0303                 2.2475                 2.9016
 Frc consts  --      1.7257                 1.3201                 1.7162
 IR Inten    --     42.3310                16.0970                 5.6474

                     55                     56                     57
                      A                      A                      A
 Frequencies --   1031.1163              1038.8469              1053.4116
 Red. masses --      2.5414                 2.2239                 2.3092
 Frc consts  --      1.5920                 1.4141                 1.5098
 IR Inten    --     31.0921                70.1512               163.4555

                     58                     59                     60
                      A                      A                      A
 Frequencies --   1058.6451              1076.3683              1078.9743
 Red. masses --      3.0181                 2.9062                 2.7558
 Frc consts  --      1.9929                 1.9838                 1.8902
 IR Inten    --     82.9553               183.0986                44.4526

                     61                     62                     63
                      A                      A                      A
 Frequencies --   1080.9513              1082.6033              1088.8675
 Red. masses --      2.3036                 2.6789                 1.8585
 Frc consts  --      1.5859                 1.8499                 1.2983
 IR Inten    --     12.6157                63.8059                53.0071

                     64                     65                     66
                      A                      A                      A
 Frequencies --   1097.5831              1109.4739              1110.8328
 Red. masses --      2.2334                 3.1201                 2.7538
 Frc consts  --      1.5853                 2.2628                 2.0020
 IR Inten    --     92.1152                11.0999               111.8347

                     67                     68                     69
                      A                      A                      A
 Frequencies --   1113.7786              1120.5511              1125.9499
 Red. masses --      2.2382                 2.0291                 2.5191
 Frc consts  --      1.6359                 1.5011                 1.8817
 IR Inten    --     83.0653                15.8542                39.9617

                     70                     71                     72
                      A                      A                      A
 Frequencies --   1139.8222              1147.6978              1153.4887
 Red. masses --      1.7499                 1.5685                 1.8067
 Frc consts  --      1.3395                 1.2173                 1.4163
 IR Inten    --     70.8509                58.8664                14.3337

                     73                     74                     75
                      A                      A                      A
 Frequencies --   1158.8720              1162.7788              1165.6302
 Red. masses --      1.3650                 1.4153                 1.4781
 Frc consts  --      1.0801                 1.1275                 1.1832
 IR Inten    --     16.8693                14.2199                 5.2847

                     76                     77                     78
                      A                      A                      A
 Frequencies --   1168.3384              1174.5492              1178.2977
 Red. masses --      1.5184                 1.3736                 1.7001
 Frc consts  --      1.2211                 1.1165                 1.3907
 IR Inten    --     91.2170                20.2749                 3.7144

                     79                     80                     81
                      A                      A                      A
 Frequencies --   1183.6902              1187.5463              1189.0276
 Red. masses --      1.8892                 1.6811                 1.2856
 Frc consts  --      1.5596                 1.3968                 1.0708
 IR Inten    --     57.9777                58.9754                 0.8591

                     82                     83                     84
                      A                      A                      A
 Frequencies --   1190.4466              1195.8277              1196.8917
 Red. masses --      1.3952                 1.3779                 1.3882
 Frc consts  --      1.1650                 1.1609                 1.1717
 IR Inten    --     23.6732                15.0159                19.6488

                     85                     86                     87
                      A                      A                      A
 Frequencies --   1208.6121              1213.2360              1221.2544
 Red. masses --      1.5169                 1.5668                 1.6528
 Frc consts  --      1.3055                 1.3588                 1.4524
 IR Inten    --      0.7590                30.7814                46.3005

                     88                     89                     90
                      A                      A                      A
 Frequencies --   1228.1831              1228.7481              1236.0932
 Red. masses --      1.5414                 1.4427                 1.3690
 Frc consts  --      1.3699                 1.2833                 1.2324
 IR Inten    --     87.5812                12.4973                14.3424

                     91                     92                     93
                      A                      A                      A
 Frequencies --   1242.2305              1244.4283              1250.3046
 Red. masses --      1.4530                 1.5704                 1.6182
 Frc consts  --      1.3211                 1.4329                 1.4904
 IR Inten    --      9.6374                 4.9501                12.7485

                     94                     95                     96
                      A                      A                      A
 Frequencies --   1254.1226              1262.8036              1266.5109
 Red. masses --      1.5893                 1.2483                 1.8687
 Frc consts  --      1.4728                 1.1729                 1.7661
 IR Inten    --     67.6718                12.7450                 9.0296

                     97                     98                     99
                      A                      A                      A
 Frequencies --   1267.0838              1279.1003              1280.8726
 Red. masses --      1.2288                 1.5697                 1.3840
 Frc consts  --      1.1624                 1.5131                 1.3379
 IR Inten    --     15.7670                13.3548                 2.4023

                    100                    101                    102
                      A                      A                      A
 Frequencies --   1333.0822              1336.7758              1340.7999
 Red. masses --      1.6369                 1.6414                 1.5132
 Frc consts  --      1.7139                 1.7282                 1.6027
 IR Inten    --      3.2886                14.2086                11.5877

                    103                    104                    105
                      A                      A                      A
 Frequencies --   1344.3889              1345.5515              1353.4628
 Red. masses --      1.4410                 1.6084                 1.9363
 Frc consts  --      1.5345                 1.7157                 2.0898
 IR Inten    --     11.1473                80.8454                 6.5684

                    106                    107                    108
                      A                      A                      A
 Frequencies --   1367.3221              1369.8094              2420.3150
 Red. masses --      1.6355                 1.1997                 1.0573
 Frc consts  --      1.8016                 1.3263                 3.6493
 IR Inten    --     29.5014                16.3348               584.5979

                    109                    110                    111
                      A                      A                      A
 Frequencies --   2503.7512              2517.5953              2532.4982
 Red. masses --      1.0541                 1.0551                 1.0553
 Frc consts  --      3.8932                 3.9402                 3.9876
 IR Inten    --    230.2850               252.0130               145.6745

                    112                    113                    114
                      A                      A                      A
 Frequencies --   2537.5468              2542.3734              2545.5169
 Red. masses --      1.0549                 1.0520                 1.0545
 Frc consts  --      4.0021                 4.0065                 4.0259
 IR Inten    --    410.1633               345.4148               194.0557

                    115                    116                    117
                      A                      A                      A
 Frequencies --   2552.6380              2620.5357              2650.4448
 Red. masses --      1.0529                 1.0626                 1.0582
 Frc consts  --      4.0422                 4.2995                 4.3799
 IR Inten    --    160.0941                48.1812                43.5093

                    118                    119                    120
                      A                      A                      A
 Frequencies --   2653.0051              2655.1350              2656.5928
 Red. masses --      1.0830                 1.0765                 1.0728
 Frc consts  --      4.4909                 4.4714                 4.4610
 IR Inten    --     42.2440                75.4493                30.7156

                    121                    122                    123
                      A                      A                      A
 Frequencies --   2662.6842              2664.9726              2667.1044
 Red. masses --      1.0679                 1.0657                 1.0651
 Frc consts  --      4.4607                 4.4595                 4.4638
 IR Inten    --     66.8788                16.9726                60.6895

                    124                    125                    126
                      A                      A                      A
 Frequencies --   2668.3752              2669.0200              2674.6589
 Red. masses --      1.0666                 1.0675                 1.0672
 Frc consts  --      4.4743                 4.4804                 4.4983
 IR Inten    --     26.6056                 8.6668               176.1965

                    127                    128                    129
                      A                      A                      A
 Frequencies --   2684.9840              2715.2316              2718.7642
 Red. masses --      1.0733                 1.0447                 1.0464
 Frc consts  --      4.5586                 4.5378                 4.5570
 IR Inten    --    128.5171                47.0797                50.6412

 - Thermochemistry -
 -------------------
 Temperature   298.150 Kelvin.  Pressure   1.00000 Atm.
 Atom     1 has atomic number  8 and mass  15.99491

 Molecular mass:   342.11621 amu.
 Principal axes and moments of inertia in atomic units:
                           1         2         3
     Eigenvalues --  4664.16498********************
           X            1.00000   0.00161   0.00140
           Y           -0.00162   0.99998   0.00534
           Z           -0.00139  -0.00535   0.99998
 This molecule is an asymmetric top.
 Rotational symmetry number  1.
 Warning -- assumption of classical behavior for rotation
           may cause significant error
 Rotational temperatures (Kelvin)      0.01857     0.00803     0.00660
 Rotational constants (GHZ):           0.38694     0.16729     0.13759
 Zero-point vibrational energy     851868.2 (Joules/Mol)
                                  203.60139 (Kcal/Mol)
 Warning -- explicit consideration of  44 degrees of freedom as
           vibrations may cause significant error
 Vibrational temperatures:     17.51    31.32    36.28    49.76    60.89
          (Kelvin)             84.81   117.86   130.43   134.49   141.50
                              188.97   240.50   246.14   266.58   299.81
                              327.04   351.75   359.56   365.24   387.99
                              409.38   415.45   433.58   449.64   458.63
                              493.67   503.98   507.98   534.09   555.15
                              567.09   572.42   585.59   616.08   637.32
                              688.16   695.04   724.82   763.91   779.12
                              806.97   808.60   836.51   872.86   917.90
                              947.21  1060.22  1254.01  1259.72  1340.60
                             1410.38  1414.52  1436.54  1441.56  1483.55
                             1494.67  1515.62  1523.15  1548.65  1552.40
                             1555.25  1557.62  1566.64  1579.18  1596.29
                             1598.24  1602.48  1612.22  1619.99  1639.95
                             1651.28  1659.61  1667.36  1672.98  1677.08
                             1680.98  1689.91  1695.31  1703.07  1708.61
                             1710.75  1712.79  1720.53  1722.06  1738.92
                             1745.58  1757.11  1767.08  1767.89  1778.46
                             1787.29  1790.45  1798.91  1804.40  1816.89
                             1822.23  1823.05  1840.34  1842.89  1918.01
                             1923.32  1929.11  1934.28  1935.95  1947.33
                             1967.27  1970.85  3482.29  3602.34  3622.26
                             3643.70  3650.96  3657.91  3662.43  3672.68
                             3770.37  3813.40  3817.08  3820.15  3822.24
                             3831.01  3834.30  3837.37  3839.20  3840.12
                             3848.24  3863.09  3906.61  3911.70

 Zero-point correction=                           0.324459 (Hartree/Particle)
 Thermal correction to Energy=                    0.349774
 Thermal correction to Enthalpy=                  0.350718
 Thermal correction to Gibbs Free Energy=         0.267218
 Sum of electronic and zero-point Energies=             -0.463383
 Sum of electronic and thermal Energies=                -0.438069
 Sum of electronic and thermal Enthalpies=              -0.437125
 Sum of electronic and thermal Free Energies=           -0.520624

                     E (Thermal)             CV                S
                      KCal/Mol        Cal/Mol-Kelvin    Cal/Mol-Kelvin
 Total                  219.486             94.837            175.740
 Electronic               0.000              0.000              0.000
 Translational            0.889              2.981             43.384
 Rotational               0.889              2.981             34.844
 Vibrational            217.709             88.876             97.512
 Vibration     1          0.593              1.987              7.621
 Vibration     2          0.593              1.985              6.466
 Vibration     3          0.593              1.985              6.174
 Vibration     4          0.594              1.983              5.547
 Vibration     5          0.595              1.980              5.147
 Vibration     6          0.596              1.974              4.492
 Vibration     7          0.600              1.962              3.844
 Vibration     8          0.602              1.956              3.646
 Vibration     9          0.602              1.954              3.586
 Vibration    10          0.604              1.950              3.487
 Vibration    11          0.612              1.922              2.926
 Vibration    12          0.624              1.883              2.467
 Vibration    13          0.626              1.878              2.424
 Vibration    14          0.631              1.860              2.275
 Vibration    15          0.642              1.828              2.058
 Vibration    16          0.651              1.799              1.900
 Vibration    17          0.660              1.772              1.770
 Vibration    18          0.663              1.763              1.731
 Vibration    19          0.665              1.756              1.704
 Vibration    20          0.674              1.729              1.598
 Vibration    21          0.683              1.702              1.506
 Vibration    22          0.685              1.695              1.481
 Vibration    23          0.693              1.671              1.409
 Vibration    24          0.701              1.650              1.349
 Vibration    25          0.705              1.638              1.316
 Vibration    26          0.722              1.589              1.198
 Vibration    27          0.727              1.575              1.165
 Vibration    28          0.729              1.569              1.152
 Vibration    29          0.743              1.531              1.075
 Vibration    30          0.755              1.500              1.016
 Vibration    31          0.761              1.483              0.984
 Vibration    32          0.764              1.475              0.971
 Vibration    33          0.772              1.455              0.937
 Vibration    34          0.790              1.409              0.865
 Vibration    35          0.803              1.376              0.817
 Vibration    36          0.835              1.298              0.715
 Vibration    37          0.839              1.288              0.702
 Vibration    38          0.859              1.242              0.649
 Vibration    39          0.886              1.182              0.585
 Vibration    40          0.897              1.158              0.562
 Vibration    41          0.917              1.116              0.522
 Vibration    42          0.918              1.113              0.520
 Vibration    43          0.938              1.072              0.483
 Vibration    44          0.965              1.018              0.438

                           ! Non-Optimized Parameters !
 Normal termination of Gaussian 16 at Tue Jun 22 14:19:07 2021.
