 Gaussian 16, Revision B.01,
 Gaussian 16:  ES64L-G16RevB.01 20-Dec-2017

 --------------------------------------
 #P pm6 opt=loose freq int=(grid=99590)
 --------------------------------------

 ----------
 initial-08
 ----------
 Symbolic Z-matrix:
 Charge =  0 Multiplicity = 1

 SCF Done:  E(RPM6) = -0.655608750704     A.U. after   14 cycles
 SCF Done:  E(RPM6) = -0.697511195723     A.U. after   13 cycles
 SCF Done:  E(RPM6) = -0.729700639860     A.U. after   12 cycles
 SCF Done:  E(RPM6) = -0.747200796585     A.U. after   12 cycles
 SCF Done:  E(RPM6) = -0.754122300905     A.U. after   12 cycles
 SCF Done:  E(RPM6) = -0.761978617542     A.U. after   12 cycles
 SCF Done:  E(RPM6) = -0.768068238585     A.U. after   13 cycles
 SCF Done:  E(RPM6) = -0.771093862088     A.U. after   12 cycles
 SCF Done:  E(RPM6) = -0.770612802905     A.U. after   13 cycles
 SCF Done:  E(RPM6) = -0.773668897978     A.U. after   12 cycles
 SCF Done:  E(RPM6) = -0.783775069259     A.U. after   11 cycles
 SCF Done:  E(RPM6) = -0.783803006319     A.U. after   10 cycles
 SCF Done:  E(RPM6) = -0.783834030199     A.U. after   11 cycles
 SCF Done:  E(RPM6) = -0.783877255038     A.U. after   11 cycles
 SCF Done:  E(RPM6) = -0.783916537451     A.U. after   11 cycles
 SCF Done:  E(RPM6) = -0.783932282280     A.U. after   10 cycles
 SCF Done:  E(RPM6) = -0.783936506926     A.U. after   11 cycles
 SCF Done:  E(RPM6) = -0.783939022954     A.U. after    9 cycles
 SCF Done:  E(RPM6) = -0.783940484575     A.U. after   10 cycles
 Optimization completed.
    -- Stationary point found.
 Normal termination of Gaussian 16 at Tue Jun 22 14:19:52 2021.

 -------------------------------------------------------------
 #P Geom=AllCheck Guess=TCheck SCRF=Check GenChk RPM6/ZDO Freq
 -------------------------------------------------------------

 Structure from the checkpoint file:  "/scratch-data/gaussian/Gau-24696.chk"
 ----------
 initial-08
 ----------
 Charge =  0 Multiplicity = 1

                         Standard orientation:
 ---------------------------------------------------------------------
 Center     Atomic      Atomic             Coordinates (Angstroms)
 Number     Number       Type             X           Y           Z
 ---------------------------------------------------------------------
      1          8           0        2.939253   -0.714762    1.373693
      2          6           0        3.447423   -0.007323    0.229382
      3          6           0        3.101316    1.493568    0.339240
      4          8           0        3.517869    1.820967    1.672318
      5          6           0        1.588429    1.745548    0.188049
      6          6           0        1.003906    1.034186   -1.055507
      7          8           0        1.386465   -0.360107   -1.083298
      8          6           0        2.802039   -0.636070   -1.021202
      9          6           0        2.860961   -2.170989   -1.017273
     10          8           0        3.935095   -2.466093   -1.930859
     11          8           0       -3.053723    1.984324   -0.548872
     12          6           0       -2.606544    0.615100   -0.500790
     13          6           0       -1.173628    0.589006    0.063819
     14          6           0       -0.734295   -0.788785    0.587684
     15          6           0       -1.851869   -1.625134    1.268490
     16          8           0       -3.155022   -1.425781    0.680838
     17          6           0       -3.587838   -0.070961    0.472332
     18          6           0       -4.999242   -0.245996   -0.129252
     19          8           0       -5.210255    0.595206   -1.259492
     20          8           0       -1.640606   -2.998353    1.025340
     21          8           0        0.189431   -0.517561    1.648753
     22          8           0       -0.404493    0.998101   -1.104166
     23          8           0        1.501519    3.162922   -0.012610
     24          1           0        4.554892   -0.156680    0.221340
     25          1           0        3.678662    2.120149   -0.379257
     26          1           0        3.252120    2.747001    1.888616
     27          1           0        1.046538    1.452966    1.124280
     28          1           0        1.267183    1.518413   -2.022251
     29          1           0        3.283669   -0.234548   -1.947544
     30          1           0        3.109761   -2.586625   -0.021549
     31          1           0        1.910520   -2.602239   -1.384758
     32          1           0        3.917877   -3.412673   -2.175735
     33          1           0       -2.653265    0.174016   -1.523851
     34          1           0       -1.036158    1.364233    0.853191
     35          1           0       -0.242912   -1.380486   -0.223677
     36          1           0       -1.882606   -1.501659    2.370256
     37          1           0       -3.612073    0.459839    1.449134
     38          1           0       -5.129559   -1.271261   -0.537204
     39          1           0       -5.780744   -0.046270    0.625334
     40          1           0       -4.974435    1.535117   -1.040207
     41          1           0        1.113238   -0.845409    1.391145
     42          1           0       -2.595238    2.448810   -1.286962
     43          1           0        0.561491    3.451482   -0.001123
     44          1           0       -2.075680   -3.272435    0.179954
     45          1           0        3.138507   -0.185544    2.197865
 ---------------------------------------------------------------------

 SCF Done:  E(RPM6) = -0.783940484574     A.U. after    2 cycles

 The electronic state is 1-A.
 Alpha  occ. eigenvalues --   -1.17327  -1.15633  -1.14109  -1.13633  -1.13025
 Alpha  occ. eigenvalues --   -1.11436  -1.10633  -1.10007  -1.09654  -1.08875
 Alpha  occ. eigenvalues --   -1.08693  -1.02245  -1.01082  -0.99428  -0.98157
 Alpha  occ. eigenvalues --   -0.92107  -0.90791  -0.88121  -0.85646  -0.82983
 Alpha  occ. eigenvalues --   -0.80409  -0.77746  -0.76530  -0.72632  -0.72049
 Alpha  occ. eigenvalues --   -0.70921  -0.69914  -0.68461  -0.67066  -0.66787
 Alpha  occ. eigenvalues --   -0.66130  -0.64847  -0.64099  -0.63108  -0.62056
 Alpha  occ. eigenvalues --   -0.61077  -0.60681  -0.59444  -0.58093  -0.57799
 Alpha  occ. eigenvalues --   -0.56957  -0.55291  -0.54764  -0.54274  -0.53432
 Alpha  occ. eigenvalues --   -0.52884  -0.52407  -0.51995  -0.50632  -0.49771
 Alpha  occ. eigenvalues --   -0.49641  -0.49262  -0.48721  -0.47703  -0.47471
 Alpha  occ. eigenvalues --   -0.45864  -0.45068  -0.44303  -0.43788  -0.42702
 Alpha  occ. eigenvalues --   -0.42238  -0.41562  -0.41524  -0.40425  -0.40085
 Alpha  occ. eigenvalues --   -0.39282  -0.39125  -0.37806
 Alpha virt. eigenvalues --    0.01683   0.02799   0.03092   0.04422   0.05283
 Alpha virt. eigenvalues --    0.05982   0.06641   0.07285   0.07545   0.07783
 Alpha virt. eigenvalues --    0.08252   0.08570   0.08933   0.09136   0.09306

 Mulliken charges:
               1
     1  O   -0.555233
     2  C    0.061830
     3  C    0.080943
     4  O   -0.558219
     5  C   -0.042059
     6  C    0.340061
     7  O   -0.518307
     8  C    0.113325
     9  C   -0.029857
    10  O   -0.555863
    11  O   -0.561862
    12  C    0.075775
    13  C    0.051002
    14  C   -0.002325
    15  C    0.358271
    16  O   -0.521881
    17  C    0.081112
    18  C   -0.019663
    19  O   -0.542868
    20  O   -0.530905
    21  O   -0.583102
    22  O   -0.467899
    23  O   -0.546825
    24  H    0.159191
    25  H    0.151086
    26  H    0.337807
    27  H    0.184958
    28  H    0.149485
    29  H    0.153425
    30  H    0.155255
    31  H    0.144864
    32  H    0.317087
    33  H    0.168676
    34  H    0.152935
    35  H    0.180304
    36  H    0.157872
    37  H    0.139171
    38  H    0.171226
    39  H    0.130139
    40  H    0.327668
    41  H    0.357401
    42  H    0.328594
    43  H    0.324498
    44  H    0.333855
    45  H    0.349051
 Sum of Mulliken charges =   0.00000

 Dipole moment (field-independent basis, Debye):
    X=              1.8670    Y=              1.9051    Z=             -0.4804  Tot=              2.7103
 N-N= 1.384709073463D+03 E-N=-2.371937306432D+03  KE=-3.044005380303D+02
  Exact polarizability: 150.691  -6.666 135.253   4.190  -1.916 106.735
 Approx polarizability:  97.996  -7.418 100.717   3.505  -2.644  81.832
 Leave Link  601 at Tue Jun 22 14:19:53 2021, MaxMem=  2147483648 cpu:               0.2 elap:               0.0
 (Enter /home/matma/Programs/gaussian/G16_x86_SSE4/tar/g16/l701.exe)
 ... and contract with generalized density number  0.
 Compute integral second derivatives.
 Leave Link  701 at Tue Jun 22 14:19:53 2021, MaxMem=  2147483648 cpu:               0.6 elap:               0.1
 (Enter /home/matma/Programs/gaussian/G16_x86_SSE4/tar/g16/l702.exe)
 L702 exits ... SP integral derivatives will be done elsewhere.

 ******    1 imaginary frequencies (negative Signs) ******

                      1                      2                      3
                      A                      A                      A
 Frequencies --    -81.2025                20.7597                34.6910
 Red. masses --      1.0497                 6.7702                 5.1417
 Frc consts  --      0.0041                 0.0017                 0.0036
 IR Inten    --     90.6900                 0.3281                 0.4391

                      4                      5                      6
                      A                      A                      A
 Frequencies --     37.1532                49.6301                55.7708
 Red. masses --      4.3654                 6.0219                 5.9431
 Frc consts  --      0.0036                 0.0087                 0.0109
 IR Inten    --      2.6618                 3.2932                17.1715

                      7                      8                      9
                      A                      A                      A
 Frequencies --     68.6409                77.7645                95.6948
 Red. masses --      6.1841                 5.4358                 5.9698
 Frc consts  --      0.0172                 0.0194                 0.0322
 IR Inten    --      3.2850                 3.8783                 5.8084

                     10                     11                     12
                      A                      A                      A
 Frequencies --    109.8610               117.3155               121.8341
 Red. masses --      4.1880                 5.7265                 4.4990
 Frc consts  --      0.0298                 0.0464                 0.0393
 IR Inten    --      2.5481                 4.7235                 1.2339

                     13                     14                     15
                      A                      A                      A
 Frequencies --    153.9071               188.1649               203.1371
 Red. masses --      6.7529                 6.3028                 4.1737
 Frc consts  --      0.0942                 0.1315                 0.1015
 IR Inten    --     10.9096                11.5526                 4.9455

                     16                     17                     18
                      A                      A                      A
 Frequencies --    220.9083               235.7802               243.9716
 Red. masses --      6.5279                 4.2382                 5.4307
 Frc consts  --      0.1877                 0.1388                 0.1905
 IR Inten    --      1.0876                 7.9519                32.0457

                     19                     20                     21
                      A                      A                      A
 Frequencies --    246.9349               259.6122               261.6475
 Red. masses --      2.1296                 1.7796                 1.6704
 Frc consts  --      0.0765                 0.0707                 0.0674
 IR Inten    --     49.2289                38.8461                65.0082

                     22                     23                     24
                      A                      A                      A
 Frequencies --    281.1701               283.8281               286.3791
 Red. masses --      3.3908                 6.0192                 1.9593
 Frc consts  --      0.1579                 0.2857                 0.0947
 IR Inten    --     21.6540                18.1047               132.8968

                     25                     26                     27
                      A                      A                      A
 Frequencies --    310.0545               325.5042               335.6462
 Red. masses --      5.8110                 4.6211                 1.2712
 Frc consts  --      0.3291                 0.2885                 0.0844
 IR Inten    --     57.9695                15.5669               100.0733

                     28                     29                     30
                      A                      A                      A
 Frequencies --    344.0555               354.3776               377.6087
 Red. masses --      1.7379                 2.9347                 5.0540
 Frc consts  --      0.1212                 0.2171                 0.4246
 IR Inten    --    133.3931                27.9029                 4.9254

                     31                     32                     33
                      A                      A                      A
 Frequencies --    390.4035               400.0225               417.5160
 Red. masses --      3.9678                 3.7190                 1.6496
 Frc consts  --      0.3563                 0.3506                 0.1694
 IR Inten    --     26.6016                47.3446                48.0112

                     34                     35                     36
                      A                      A                      A
 Frequencies --    431.2406               438.2922               470.4451
 Red. masses --      2.7427                 3.2985                 2.4307
 Frc consts  --      0.3005                 0.3733                 0.3170
 IR Inten    --     23.0486                40.1775                29.5904

                     37                     38                     39
                      A                      A                      A
 Frequencies --    484.6717               491.6277               505.2169
 Red. masses --      1.8661                 3.0294                 1.5695
 Frc consts  --      0.2583                 0.4314                 0.2360
 IR Inten    --     27.2287                25.9723                85.4848

                     40                     41                     42
                      A                      A                      A
 Frequencies --    516.9733               540.2662               551.5777
 Red. masses --      1.9999                 3.6625                 4.5050
 Frc consts  --      0.3149                 0.6299                 0.8075
 IR Inten    --     90.6718                13.0468                24.6209

                     43                     44                     45
                      A                      A                      A
 Frequencies --    578.3732               599.8802               626.5679
 Red. masses --      3.7590                 4.6906                 4.1637
 Frc consts  --      0.7409                 0.9945                 0.9631
 IR Inten    --     16.0814                15.4076                36.7137

                     46                     47                     48
                      A                      A                      A
 Frequencies --    663.0466               734.1610               878.9713
 Red. masses --      5.7182                 5.6841                 1.8152
 Frc consts  --      1.4811                 1.8051                 0.8263
 IR Inten    --      7.8098                 6.9947                12.7174

                     49                     50                     51
                      A                      A                      A
 Frequencies --    889.1680               938.6076               961.2866
 Red. masses --      1.9739                 2.4898                 3.1424
 Frc consts  --      0.9195                 1.2924                 1.7109
 IR Inten    --      6.7476                16.3521                43.7479

                     52                     53                     54
                      A                      A                      A
 Frequencies --    974.4893               989.8446              1009.9556
 Red. masses --      2.9283                 2.2451                 2.8036
 Frc consts  --      1.6384                 1.2961                 1.6849
 IR Inten    --     31.7726                 8.9460                33.2751

                     55                     56                     57
                      A                      A                      A
 Frequencies --   1030.8738              1038.4491              1063.0937
 Red. masses --      2.6399                 3.1073                 4.0510
 Frc consts  --      1.6529                 1.9742                 2.6975
 IR Inten    --     15.1533                44.6413                88.1794

                     58                     59                     60
                      A                      A                      A
 Frequencies --   1069.7097              1075.0556              1078.2555
 Red. masses --      2.5770                 2.4601                 2.5323
 Frc consts  --      1.7374                 1.6752                 1.7346
 IR Inten    --     45.0506               292.7531                48.1912

                     61                     62                     63
                      A                      A                      A
 Frequencies --   1082.7402              1084.4441              1092.8952
 Red. masses --      2.3228                 1.6919                 1.7061
 Frc consts  --      1.6044                 1.1723                 1.2007
 IR Inten    --    136.4945                36.2798                 2.9236

                     64                     65                     66
                      A                      A                      A
 Frequencies --   1100.4371              1101.9419              1109.1183
 Red. masses --      3.0336                 2.5919                 2.9301
 Frc consts  --      2.1644                 1.8543                 2.1236
 IR Inten    --     88.9616                73.1712                19.0483

                     67                     68                     69
                      A                      A                      A
 Frequencies --   1117.9946              1120.0035              1132.8417
 Red. masses --      1.9655                 2.2422                 2.5224
 Frc consts  --      1.4475                 1.6571                 1.9073
 IR Inten    --     46.1956                32.2534                61.1368

                     70                     71                     72
                      A                      A                      A
 Frequencies --   1139.2260              1146.1384              1155.1026
 Red. masses --      2.1727                 1.7888                 1.4568
 Frc consts  --      1.6614                 1.3845                 1.1452
 IR Inten    --    124.3917                39.2510                19.3042

                     73                     74                     75
                      A                      A                      A
 Frequencies --   1158.7289              1159.2743              1164.5905
 Red. masses --      1.4056                 1.2444                 1.4641
 Frc consts  --      1.1119                 0.9853                 1.1700
 IR Inten    --     23.7822                33.6282                21.9726

                     76                     77                     78
                      A                      A                      A
 Frequencies --   1169.3451              1171.6411              1175.1700
 Red. masses --      1.5651                 1.5204                 1.4390
 Frc consts  --      1.2609                 1.2297                 1.1709
 IR Inten    --      5.4841                42.8432                 0.8655

                     79                     80                     81
                      A                      A                      A
 Frequencies --   1180.3787              1183.6828              1187.5361
 Red. masses --      1.5964                 1.6604                 1.2684
 Frc consts  --      1.3105                 1.3707                 1.0539
 IR Inten    --     56.0978                22.0728                10.4632

                     82                     83                     84
                      A                      A                      A
 Frequencies --   1191.8859              1199.0467              1200.7765
 Red. masses --      1.5159                 1.5294                 1.5324
 Frc consts  --      1.2688                 1.2955                 1.3018
 IR Inten    --     25.5409                35.9079                12.6522

                     85                     86                     87
                      A                      A                      A
 Frequencies --   1211.0160              1216.7714              1220.9099
 Red. masses --      1.3075                 1.7815                 1.5993
 Frc consts  --      1.1297                 1.5541                 1.4046
 IR Inten    --      2.5739                36.9777                19.8289

                     88                     89                     90
                      A                      A                      A
 Frequencies --   1229.3982              1233.9837              1235.5679
 Red. masses --      1.4831                 1.3670                 1.4056
 Frc consts  --      1.3207                 1.2264                 1.2643
 IR Inten    --     33.7668                27.8515                18.9785

                     91                     92                     93
                      A                      A                      A
 Frequencies --   1239.9956              1245.0410              1250.2556
 Red. masses --      1.4305                 1.5254                 1.7659
 Frc consts  --      1.2959                 1.3931                 1.6263
 IR Inten    --      3.0500                50.5584                49.1050

                     94                     95                     96
                      A                      A                      A
 Frequencies --   1259.2987              1261.8004              1265.5232
 Red. masses --      1.4723                 1.4187                 1.4437
 Frc consts  --      1.3757                 1.3308                 1.3623
 IR Inten    --      8.3161                12.4737                12.4660

                     97                     98                     99
                      A                      A                      A
 Frequencies --   1272.8062              1279.3387              1280.6066
 Red. masses --      1.7238                 1.4717                 1.2228
 Frc consts  --      1.6454                 1.4192                 1.1816
 IR Inten    --     25.6440                 9.3736                 2.6078

                    100                    101                    102
                      A                      A                      A
 Frequencies --   1326.0939              1328.4803              1340.2728
 Red. masses --      1.4502                 1.6572                 1.6109
 Frc consts  --      1.5025                 1.7232                 1.7049
 IR Inten    --     11.0555                 4.0737                42.8569

                    103                    104                    105
                      A                      A                      A
 Frequencies --   1341.6968              1344.2759              1344.6697
 Red. masses --      1.6465                 1.7408                 1.8401
 Frc consts  --      1.7463                 1.8535                 1.9603
 IR Inten    --      1.4075                16.6898                 5.1758

                    106                    107                    108
                      A                      A                      A
 Frequencies --   1367.8490              1370.8937              2381.0030
 Red. masses --      1.1881                 1.6413                 1.0592
 Frc consts  --      1.3098                 1.8173                 3.5378
 IR Inten    --     12.6701                30.6199               754.1400

                    109                    110                    111
                      A                      A                      A
 Frequencies --   2509.8437              2516.8347              2536.2632
 Red. masses --      1.0539                 1.0549                 1.0549
 Frc consts  --      3.9116                 3.9371                 3.9980
 IR Inten    --    211.7664               250.2345               225.7296

                    112                    113                    114
                      A                      A                      A
 Frequencies --   2540.2172              2543.9011              2547.7320
 Red. masses --      1.0549                 1.0555                 1.0532
 Frc consts  --      4.0106                 4.0244                 4.0277
 IR Inten    --    404.5051                78.9130               372.5941

                    115                    116                    117
                      A                      A                      A
 Frequencies --   2549.6579              2621.9451              2643.8545
 Red. masses --      1.0530                 1.0630                 1.0828
 Frc consts  --      4.0333                 4.3054                 4.4593
 IR Inten    --    158.2500                80.9475                59.8873

                    118                    119                    120
                      A                      A                      A
 Frequencies --   2647.1371              2653.5905              2659.4927
 Red. masses --      1.0651                 1.0822                 1.0662
 Frc consts  --      4.3974                 4.4896                 4.4429
 IR Inten    --     55.3501                43.7692                41.0686

                    121                    122                    123
                      A                      A                      A
 Frequencies --   2662.7213              2664.9105              2666.1393
 Red. masses --      1.0600                 1.0647                 1.0653
 Frc consts  --      4.4279                 4.4550                 4.4615
 IR Inten    --     20.5653                34.4340                56.6540

                    124                    125                    126
                      A                      A                      A
 Frequencies --   2671.5088              2673.7357              2674.1188
 Red. masses --      1.0670                 1.0698                 1.0664
 Frc consts  --      4.4868                 4.5061                 4.4930
 IR Inten    --     35.7979                60.2019               121.3975

                    127                    128                    129
                      A                      A                      A
 Frequencies --   2685.2368              2705.9150              2717.7268
 Red. masses --      1.0744                 1.0459                 1.0451
 Frc consts  --      4.5643                 4.5120                 4.5481
 IR Inten    --    166.9911                41.6011                49.5431

 - Thermochemistry -
 -------------------
 Temperature   298.150 Kelvin.  Pressure   1.00000 Atm.
 Atom     1 has atomic number  8 and mass  15.99491

 Molecular mass:   342.11621 amu.
 Principal axes and moments of inertia in atomic units:
                           1         2         3
     Eigenvalues --  4412.36411********************
           X            0.99999  -0.00419  -0.00171
           Y            0.00421   0.99990   0.01367
           Z            0.00166  -0.01368   0.99991
 This molecule is an asymmetric top.
 Rotational symmetry number  1.
 Warning -- assumption of classical behavior for rotation
           may cause significant error
 Rotational temperatures (Kelvin)      0.01963     0.00774     0.00672
 Rotational constants (GHZ):           0.40902     0.16123     0.14012
    1 imaginary frequencies ignored.
 Zero-point vibrational energy     849377.4 (Joules/Mol)
                                  203.00608 (Kcal/Mol)
 Warning -- explicit consideration of  43 degrees of freedom as
           vibrations may cause significant error
 Vibrational temperatures:     29.87    49.91    53.46    71.41    80.24
          (Kelvin)             98.76   111.89   137.68   158.07   168.79
                              175.29   221.44   270.73   292.27   317.84
                              339.24   351.02   355.28   373.52   376.45
                              404.54   408.37   412.04   446.10   468.33
                              482.92   495.02   509.87   543.29   561.70
                              575.54   600.71   620.46   630.60   676.87
                              697.33   707.34   726.89   743.81   777.32
                              793.60   832.15   863.09   901.49   953.98
                             1056.29  1264.64  1279.31  1350.45  1383.08
                             1402.07  1424.17  1453.10  1483.20  1494.10
                             1529.55  1539.07  1546.77  1551.37  1557.82
                             1560.27  1572.43  1583.28  1585.45  1595.77
                             1608.54  1611.44  1629.91  1639.09  1649.04
                             1661.94  1667.15  1667.94  1675.59  1682.43
                             1685.73  1690.81  1698.30  1703.06  1708.60
                             1714.86  1725.16  1727.65  1742.38  1750.66
                             1756.62  1768.83  1775.43  1777.71  1784.08
                             1791.34  1798.84  1811.85  1815.45  1820.81
                             1831.28  1840.68  1842.51  1907.95  1911.39
                             1928.35  1930.40  1934.11  1934.68  1968.03
                             1972.41  3425.73  3611.11  3621.16  3649.12
                             3654.81  3660.11  3665.62  3668.39  3772.39
                             3803.92  3808.64  3817.92  3826.42  3831.06
                             3834.21  3835.98  3843.71  3846.91  3847.46
                             3863.46  3893.21  3910.20

 Zero-point correction=                           0.323511 (Hartree/Particle)
 Thermal correction to Energy=                    0.348340
 Thermal correction to Enthalpy=                  0.349284
 Thermal correction to Gibbs Free Energy=         0.268560
 Sum of electronic and zero-point Energies=             -0.460430
 Sum of electronic and thermal Energies=                -0.435601
 Sum of electronic and thermal Enthalpies=              -0.434656
 Sum of electronic and thermal Free Energies=           -0.515380

                     E (Thermal)             CV                S
                      KCal/Mol        Cal/Mol-Kelvin    Cal/Mol-Kelvin
 Total                  218.587             93.509            169.897
 Electronic               0.000              0.000              0.000
 Translational            0.889              2.981             43.384
 Rotational               0.889              2.981             34.808
 Vibrational            216.809             87.547             91.705
 Vibration     1          0.593              1.986              6.560
 Vibration     2          0.594              1.983              5.541
 Vibration     3          0.594              1.982              5.405
 Vibration     4          0.595              1.978              4.832
 Vibration     5          0.596              1.975              4.602
 Vibration     6          0.598              1.969              4.192
 Vibration     7          0.599              1.964              3.947
 Vibration     8          0.603              1.952              3.540
 Vibration     9          0.606              1.941              3.271
 Vibration    10          0.608              1.935              3.144
 Vibration    11          0.609              1.931              3.071
 Vibration    12          0.619              1.898              2.623
 Vibration    13          0.633              1.856              2.246
 Vibration    14          0.639              1.835              2.104
 Vibration    15          0.648              1.809              1.952
 Vibration    16          0.655              1.786              1.835
 Vibration    17          0.659              1.773              1.774
 Vibration    18          0.661              1.768              1.752
 Vibration    19          0.668              1.746              1.664
 Vibration    20          0.669              1.743              1.651
 Vibration    21          0.681              1.708              1.527
 Vibration    22          0.682              1.704              1.510
 Vibration    23          0.684              1.699              1.495
 Vibration    24          0.699              1.655              1.362
 Vibration    25          0.710              1.624              1.282
 Vibration    26          0.717              1.604              1.233
 Vibration    27          0.723              1.587              1.193
 Vibration    28          0.730              1.566              1.147
 Vibration    29          0.748              1.518              1.049
 Vibration    30          0.758              1.491              0.999
 Vibration    31          0.766              1.470              0.963
 Vibration    32          0.781              1.432              0.900
 Vibration    33          0.792              1.402              0.855
 Vibration    34          0.798              1.387              0.832
 Vibration    35          0.827              1.316              0.736
 Vibration    36          0.841              1.284              0.698
 Vibration    37          0.847              1.269              0.679
 Vibration    38          0.860              1.238              0.645
 Vibration    39          0.872              1.212              0.617
 Vibration    40          0.895              1.161              0.565
 Vibration    41          0.907              1.136              0.541
 Vibration    42          0.935              1.078              0.488
 Vibration    43          0.958              1.032              0.450

                           ! Non-Optimized Parameters !
 Normal termination of Gaussian 16 at Tue Jun 22 14:19:53 2021.
