 Gaussian 16, Revision B.01,
 Gaussian 16:  ES64L-G16RevB.01 20-Dec-2017

 --------------------------------------
 #P pm6 opt=loose freq int=(grid=99590)
 --------------------------------------

 ------------
 offspring-04
 ------------
 Symbolic Z-matrix:
 Charge =  0 Multiplicity = 1

 SCF Done:  E(RPM6) = -0.725192569622     A.U. after   14 cycles
 SCF Done:  E(RPM6) = -0.757784980476     A.U. after   13 cycles
 SCF Done:  E(RPM6) = -0.756441396882     A.U. after   13 cycles
 SCF Done:  E(RPM6) = -0.770975293958     A.U. after   12 cycles
 SCF Done:  E(RPM6) = -0.574133705277     A.U. after   13 cycles
 SCF Done:  E(RPM6) = -0.777800362974     A.U. after   12 cycles
 SCF Done:  E(RPM6) = -0.780758907729     A.U. after   12 cycles
 SCF Done:  E(RPM6) = -0.783177922879     A.U. after   12 cycles
 SCF Done:  E(RPM6) = -0.784971474094     A.U. after   12 cycles
 SCF Done:  E(RPM6) = -0.787111262614     A.U. after   12 cycles
 SCF Done:  E(RPM6) = -0.790145864829     A.U. after   10 cycles
 SCF Done:  E(RPM6) = -0.790168174201     A.U. after   10 cycles
 SCF Done:  E(RPM6) = -0.790186618632     A.U. after   11 cycles
 SCF Done:  E(RPM6) = -0.790199777199     A.U. after   10 cycles
 SCF Done:  E(RPM6) = -0.790204276550     A.U. after   10 cycles
 SCF Done:  E(RPM6) = -0.790207730955     A.U. after    9 cycles
 SCF Done:  E(RPM6) = -0.790211937825     A.U. after   10 cycles
 SCF Done:  E(RPM6) = -0.790213607461     A.U. after    9 cycles
 SCF Done:  E(RPM6) = -0.790214265409     A.U. after    9 cycles
 Optimization completed.
    -- Stationary point found.
 Normal termination of Gaussian 16 at Tue Jun 22 14:21:41 2021.

 -------------------------------------------------------------
 #P Geom=AllCheck Guess=TCheck SCRF=Check GenChk RPM6/ZDO Freq
 -------------------------------------------------------------

 Structure from the checkpoint file:  "/scratch-data/gaussian/Gau-3120.chk"
 ------------
 offspring-04
 ------------
 Charge =  0 Multiplicity = 1

                         Standard orientation:
 ---------------------------------------------------------------------
 Center     Atomic      Atomic             Coordinates (Angstroms)
 Number     Number       Type             X           Y           Z
 ---------------------------------------------------------------------
      1          8           0        4.757635   -1.022968    0.201317
      2          6           0        3.812961   -0.736217   -0.832481
      3          6           0        3.565993    0.790572   -0.949154
      4          8           0        4.812491    1.375518   -0.558537
      5          6           0        2.436070    1.264034   -0.010735
      6          6           0        1.135994    0.515296   -0.374574
      7          8           0        1.359459   -0.794759   -0.875864
      8          6           0        2.529759   -1.518836   -0.440395
      9          6           0        2.515567   -1.851726    1.062593
     10          8           0        1.219213   -2.287731    1.471608
     11          8           0       -3.449797   -1.687995   -1.286701
     12          6           0       -3.048854   -0.849489   -0.189182
     13          6           0       -1.506221   -0.860347   -0.089924
     14          6           0       -1.016868    0.304672    0.799511
     15          6           0       -1.616819    1.656682    0.329192
     16          8           0       -3.054501    1.542902    0.312627
     17          6           0       -3.595152    0.541033   -0.577559
     18          6           0       -5.117301    0.665097   -0.352378
     19          8           0       -5.747952   -0.606880   -0.238720
     20          8           0       -1.388023    2.690927    1.248994
     21          8           0        0.417427    0.391742    0.860109
     22          8           0       -1.214103   -2.100773    0.547420
     23          8           0        2.266966    2.650017   -0.322387
     24          1           0        4.242850   -1.121714   -1.786016
     25          1           0        3.351243    1.098525   -1.999241
     26          1           0        4.699330    2.350332   -0.434950
     27          1           0        2.698981    1.143483    1.065168
     28          1           0        0.538662    1.005150   -1.170791
     29          1           0        2.412691   -2.444565   -1.054793
     30          1           0        3.176598   -2.719014    1.269453
     31          1           0        2.844244   -1.002465    1.687346
     32          1           0        0.650598   -1.485720    1.667450
     33          1           0       -3.509338   -1.238481    0.750818
     34          1           0       -1.031375   -0.842581   -1.097912
     35          1           0       -1.256841    0.107585    1.874359
     36          1           0       -1.225517    2.028883   -0.638323
     37          1           0       -3.307383    0.795687   -1.621274
     38          1           0       -5.334688    1.153798    0.621515
     39          1           0       -5.595046    1.236798   -1.168003
     40          1           0       -5.478794   -1.197540   -0.990804
     41          1           0       -0.251944   -2.371541    0.366232
     42          1           0       -3.164498   -2.617499   -1.102559
     43          1           0        1.691690    3.083028    0.355418
     44          1           0       -1.998466    2.616869    2.025629
     45          1           0        5.445716   -0.303648    0.252858
 ---------------------------------------------------------------------

 SCF Done:  E(RPM6) = -0.790214265410     A.U. after    2 cycles

 The electronic state is 1-A.
 Alpha  occ. eigenvalues --   -1.18007  -1.16811  -1.14753  -1.14425  -1.13513
 Alpha  occ. eigenvalues --   -1.12042  -1.10954  -1.10653  -1.09772  -1.09510
 Alpha  occ. eigenvalues --   -1.07728  -1.01850  -1.01487  -0.99569  -0.99023
 Alpha  occ. eigenvalues --   -0.93836  -0.90642  -0.87930  -0.86622  -0.83772
 Alpha  occ. eigenvalues --   -0.82221  -0.78331  -0.75218  -0.74631  -0.73093
 Alpha  occ. eigenvalues --   -0.70893  -0.69739  -0.69242  -0.67708  -0.65974
 Alpha  occ. eigenvalues --   -0.65625  -0.64407  -0.64326  -0.63426  -0.63158
 Alpha  occ. eigenvalues --   -0.62013  -0.61585  -0.59690  -0.59464  -0.57549
 Alpha  occ. eigenvalues --   -0.56774  -0.56428  -0.55752  -0.54364  -0.54335
 Alpha  occ. eigenvalues --   -0.53045  -0.52055  -0.51575  -0.51258  -0.50555
 Alpha  occ. eigenvalues --   -0.49911  -0.49126  -0.48773  -0.47815  -0.47500
 Alpha  occ. eigenvalues --   -0.46119  -0.45920  -0.45232  -0.44110  -0.43340
 Alpha  occ. eigenvalues --   -0.42892  -0.41886  -0.41482  -0.41233  -0.40547
 Alpha  occ. eigenvalues --   -0.39421  -0.38989  -0.38521
 Alpha virt. eigenvalues --    0.01122   0.01952   0.02712   0.04663   0.04737
 Alpha virt. eigenvalues --    0.05549   0.05928   0.07152   0.07344   0.07550
 Alpha virt. eigenvalues --    0.07945   0.08146   0.08589   0.08650   0.09150

 Mulliken charges:
               1
     1  O   -0.557426
     2  C    0.076136
     3  C    0.080021
     4  O   -0.557555
     5  C    0.013353
     6  C    0.294809
     7  O   -0.482668
     8  C    0.077964
     9  C   -0.038820
    10  O   -0.545059
    11  O   -0.562975
    12  C    0.074424
    13  C    0.050183
    14  C   -0.030617
    15  C    0.333533
    16  O   -0.511510
    17  C    0.071282
    18  C   -0.019371
    19  O   -0.538098
    20  O   -0.519390
    21  O   -0.482879
    22  O   -0.568832
    23  O   -0.546952
    24  H    0.144015
    25  H    0.152147
    26  H    0.342714
    27  H    0.167718
    28  H    0.145008
    29  H    0.164853
    30  H    0.169596
    31  H    0.141141
    32  H    0.334007
    33  H    0.170545
    34  H    0.150548
    35  H    0.186761
    36  H    0.136551
    37  H    0.138477
    38  H    0.170724
    39  H    0.130742
    40  H    0.328800
    41  H    0.356675
    42  H    0.337304
    43  H    0.334861
    44  H    0.338690
    45  H    0.348569
 Sum of Mulliken charges =   0.00000

 Dipole moment (field-independent basis, Debye):
    X=              2.0858    Y=              2.5228    Z=             -1.8334  Tot=              3.7519
 N-N= 1.380913916315D+03 E-N=-2.363841000376D+03  KE=-3.043642528132D+02
  Exact polarizability: 161.028   0.927 134.970  -0.753   6.435  98.244
 Approx polarizability: 103.340   1.104 101.015   0.846   7.727  77.827
 Leave Link  601 at Tue Jun 22 14:21:42 2021, MaxMem=  2147483648 cpu:               0.2 elap:               0.0
 (Enter /home/matma/Programs/gaussian/G16_x86_SSE4/tar/g16/l701.exe)
 ... and contract with generalized density number  0.
 Compute integral second derivatives.
 Leave Link  701 at Tue Jun 22 14:21:42 2021, MaxMem=  2147483648 cpu:               0.6 elap:               0.1
 (Enter /home/matma/Programs/gaussian/G16_x86_SSE4/tar/g16/l702.exe)
 L702 exits ... SP integral derivatives will be done elsewhere.

                      1                      2                      3
                      A                      A                      A
 Frequencies --     14.9205                28.6511                39.3319
 Red. masses --      5.1614                 6.5013                 5.2233
 Frc consts  --      0.0007                 0.0031                 0.0048
 IR Inten    --      0.9268                 0.2077                 0.7375

                      4                      5                      6
                      A                      A                      A
 Frequencies --     45.1541                57.9841                62.5308
 Red. masses --      3.9016                 5.5199                 5.9740
 Frc consts  --      0.0047                 0.0109                 0.0138
 IR Inten    --      0.5075                 1.7745                 2.6930

                      7                      8                      9
                      A                      A                      A
 Frequencies --     80.2259                81.7409               107.1736
 Red. masses --      3.5759                 6.3059                 5.6337
 Frc consts  --      0.0136                 0.0248                 0.0381
 IR Inten    --     11.8526                 4.9515                 2.0286

                     10                     11                     12
                      A                      A                      A
 Frequencies --    114.3590               131.8116               146.9177
 Red. masses --      6.2160                 4.2639                 5.6104
 Frc consts  --      0.0479                 0.0436                 0.0713
 IR Inten    --     10.0531                 2.1070                 3.6705

                     13                     14                     15
                      A                      A                      A
 Frequencies --    165.1958               191.1741               218.0025
 Red. masses --      5.9489                 6.3911                 4.6693
 Frc consts  --      0.0957                 0.1376                 0.1307
 IR Inten    --      2.0924                 3.4398                10.9309

                     16                     17                     18
                      A                      A                      A
 Frequencies --    228.5241               237.1545               254.8284
 Red. masses --      4.6974                 5.2799                 5.1614
 Frc consts  --      0.1445                 0.1750                 0.1975
 IR Inten    --     18.2827                 3.8478                 5.9439

                     19                     20                     21
                      A                      A                      A
 Frequencies --    267.9752               272.3296               285.0436
 Red. masses --      2.0493                 4.5699                 2.1913
 Frc consts  --      0.0867                 0.1997                 0.1049
 IR Inten    --     43.4572                 3.6429                38.1516

                     22                     23                     24
                      A                      A                      A
 Frequencies --    294.3303               309.7678               324.2739
 Red. masses --      1.3775                 1.8898                 1.7058
 Frc consts  --      0.0703                 0.1068                 0.1057
 IR Inten    --    157.7929               104.2320                35.5696

                     25                     26                     27
                      A                      A                      A
 Frequencies --    332.3790               356.6579               358.7903
 Red. masses --      4.1349                 1.4883                 3.3509
 Frc consts  --      0.2691                 0.1115                 0.2541
 IR Inten    --     87.0563                63.8532                70.2843

                     28                     29                     30
                      A                      A                      A
 Frequencies --    363.2778               368.1413               382.7668
 Red. masses --      1.9976                 2.2403                 3.7547
 Frc consts  --      0.1553                 0.1789                 0.3241
 IR Inten    --    111.7227                32.8005                11.4714

                     31                     32                     33
                      A                      A                      A
 Frequencies --    391.7377               409.3304               421.9652
 Red. masses --      2.9581                 3.9459                 4.2893
 Frc consts  --      0.2675                 0.3895                 0.4500
 IR Inten    --     35.0377                35.8075                11.2190

                     34                     35                     36
                      A                      A                      A
 Frequencies --    446.3344               453.6286               474.7684
 Red. masses --      5.2836                 1.1277                 3.8422
 Frc consts  --      0.6202                 0.1367                 0.5103
 IR Inten    --     13.5311               293.5682                15.7143

                     37                     38                     39
                      A                      A                      A
 Frequencies --    489.6240               494.8366               507.5479
 Red. masses --      3.5613                 1.2705                 4.3777
 Frc consts  --      0.5030                 0.1833                 0.6644
 IR Inten    --     23.6898                93.8981                23.7597

                     40                     41                     42
                      A                      A                      A
 Frequencies --    529.5310               550.1851               582.6035
 Red. masses --      4.2812                 4.5242                 4.7052
 Frc consts  --      0.7073                 0.8069                 0.9410
 IR Inten    --     12.2055                 7.0358                35.3894

                     43                     44                     45
                      A                      A                      A
 Frequencies --    603.4513               620.9248               676.0014
 Red. masses --      4.5886                 3.9857                 2.6776
 Frc consts  --      0.9845                 0.9054                 0.7209
 IR Inten    --      7.6151                 1.3216                 1.2996

                     46                     47                     48
                      A                      A                      A
 Frequencies --    679.7915               729.8810               842.2180
 Red. masses --      1.3369                 3.5698                 2.6634
 Frc consts  --      0.3640                 1.1205                 1.1131
 IR Inten    --     64.8121                 8.0944                29.9996

                     49                     50                     51
                      A                      A                      A
 Frequencies --    881.3412               917.4763               966.3759
 Red. masses --      1.7463                 2.2994                 1.8894
 Frc consts  --      0.7992                 1.1404                 1.0396
 IR Inten    --     19.5275                 8.3041                15.3721

                     52                     53                     54
                      A                      A                      A
 Frequencies --    979.9444               999.5190              1006.3119
 Red. masses --      3.7144                 2.6391                 3.2408
 Frc consts  --      2.1015                 1.5534                 1.9336
 IR Inten    --     98.0006                 9.5256                89.4913

                     55                     56                     57
                      A                      A                      A
 Frequencies --   1021.7509              1043.3338              1059.8922
 Red. masses --      2.6341                 2.3777                 2.5486
 Frc consts  --      1.6202                 1.5250                 1.6868
 IR Inten    --     33.8541               125.1235                93.1261

                     58                     59                     60
                      A                      A                      A
 Frequencies --   1076.2771              1079.1807              1079.3114
 Red. masses --      2.1978                 1.9626                 2.3858
 Frc consts  --      1.5000                 1.3467                 1.6375
 IR Inten    --    119.8380                63.5654               115.0211

                     61                     62                     63
                      A                      A                      A
 Frequencies --   1087.4358              1089.6374              1102.2734
 Red. masses --      2.5712                 2.5253                 2.5791
 Frc consts  --      1.7914                 1.7666                 1.8462
 IR Inten    --     56.5160                60.2540                30.3801

                     64                     65                     66
                      A                      A                      A
 Frequencies --   1103.7916              1105.1021              1114.9302
 Red. masses --      2.4997                 2.1580                 2.4557
 Frc consts  --      1.7944                 1.5527                 1.7985
 IR Inten    --     72.5887                48.3749                36.0522

                     67                     68                     69
                      A                      A                      A
 Frequencies --   1119.1755              1121.1858              1124.6355
 Red. masses --      2.0925                 1.8449                 2.2488
 Frc consts  --      1.5442                 1.3664                 1.6758
 IR Inten    --     20.7641                42.4766                17.7581

                     70                     71                     72
                      A                      A                      A
 Frequencies --   1133.2215              1139.6245              1149.0574
 Red. masses --      2.7066                 2.1497                 1.8740
 Frc consts  --      2.0479                 1.6450                 1.4578
 IR Inten    --    199.3511                67.9119                18.4664

                     73                     74                     75
                      A                      A                      A
 Frequencies --   1154.6476              1156.1711              1158.8349
 Red. masses --      1.4851                 1.9041                 1.6971
 Frc consts  --      1.1665                 1.4996                 1.3428
 IR Inten    --      0.6393                 5.1991                36.0898

                     76                     77                     78
                      A                      A                      A
 Frequencies --   1165.5715              1169.2456              1174.9782
 Red. masses --      1.4172                 1.3539                 1.5161
 Frc consts  --      1.1344                 1.0905                 1.2332
 IR Inten    --      4.1265                39.9524                20.7087

                     79                     80                     81
                      A                      A                      A
 Frequencies --   1181.1455              1185.9573              1190.4856
 Red. masses --      2.1733                 1.4624                 1.3579
 Frc consts  --      1.7864                 1.2118                 1.1339
 IR Inten    --     18.2764                30.4054                10.2644

                     82                     83                     84
                      A                      A                      A
 Frequencies --   1192.2445              1198.5918              1207.3321
 Red. masses --      1.6689                 1.2638                 1.4684
 Frc consts  --      1.3977                 1.0697                 1.2611
 IR Inten    --     60.6241                 7.0328                33.3824

                     85                     86                     87
                      A                      A                      A
 Frequencies --   1208.4544              1211.4624              1222.3010
 Red. masses --      1.4149                 1.3986                 1.5117
 Frc consts  --      1.2174                 1.2094                 1.3307
 IR Inten    --     13.2874                14.6708                24.0289

                     88                     89                     90
                      A                      A                      A
 Frequencies --   1225.8426              1230.4337              1233.5407
 Red. masses --      1.5568                 1.4324                 1.5659
 Frc consts  --      1.3783                 1.2777                 1.4038
 IR Inten    --     13.1773                 9.7252                13.7139

                     91                     92                     93
                      A                      A                      A
 Frequencies --   1237.1483              1240.5113              1248.7995
 Red. masses --      1.5831                 1.4829                 1.5668
 Frc consts  --      1.4276                 1.3445                 1.4396
 IR Inten    --     18.8261                27.0657                 5.8546

                     94                     95                     96
                      A                      A                      A
 Frequencies --   1252.9321              1255.2383              1266.1711
 Red. masses --      1.3469                 1.4360                 1.3318
 Frc consts  --      1.2458                 1.3331                 1.2579
 IR Inten    --     49.5246                31.7609                16.0886

                     97                     98                     99
                      A                      A                      A
 Frequencies --   1272.8587              1277.4007              1292.7235
 Red. masses --      1.7321                 1.3923                 1.4869
 Frc consts  --      1.6534                 1.3386                 1.4640
 IR Inten    --      2.5096                 2.5483                 2.0450

                    100                    101                    102
                      A                      A                      A
 Frequencies --   1319.7568              1331.5455              1338.4165
 Red. masses --      1.7151                 1.6195                 1.2083
 Frc consts  --      1.7601                 1.6918                 1.2753
 IR Inten    --      7.4621                 1.3131                12.0671

                    103                    104                    105
                      A                      A                      A
 Frequencies --   1342.0987              1345.6040              1350.3152
 Red. masses --      1.8384                 1.6819                 1.5475
 Frc consts  --      1.9510                 1.7943                 1.6625
 IR Inten    --     11.0850                29.4792                10.0574

                    106                    107                    108
                      A                      A                      A
 Frequencies --   1369.3749              1386.2289              2370.3923
 Red. masses --      1.1948                 1.4097                 1.0615
 Frc consts  --      1.3201                 1.5961                 3.5142
 IR Inten    --     12.7379                44.6596               396.5661

                    109                    110                    111
                      A                      A                      A
 Frequencies --   2496.5364              2513.4205              2517.0024
 Red. masses --      1.0553                 1.0541                 1.0535
 Frc consts  --      3.8754                 3.9234                 3.9323
 IR Inten    --    351.2667               190.6613               339.3203

                    112                    113                    114
                      A                      A                      A
 Frequencies --   2527.4897              2532.7368              2542.8595
 Red. masses --      1.0551                 1.0551                 1.0542
 Frc consts  --      3.9711                 3.9876                 4.0163
 IR Inten    --    159.6032               476.3392               390.9894

                    115                    116                    117
                      A                      A                      A
 Frequencies --   2546.3164              2653.0608              2654.7020
 Red. masses --      1.0517                 1.0808                 1.0836
 Frc consts  --      4.0175                 4.4824                 4.4995
 IR Inten    --    151.5052                39.5669                55.7520

                    118                    119                    120
                      A                      A                      A
 Frequencies --   2657.7380              2659.2048              2663.1768
 Red. masses --      1.0589                 1.0584                 1.0636
 Frc consts  --      4.4067                 4.4098                 4.4448
 IR Inten    --     27.7152                21.4669                 4.8371

                    121                    122                    123
                      A                      A                      A
 Frequencies --   2665.5708              2668.2314              2671.0212
 Red. masses --      1.0643                 1.0663                 1.0659
 Frc consts  --      4.4556                 4.4729                 4.4804
 IR Inten    --      7.4622                32.7648                 9.4891

                    124                    125                    126
                      A                      A                      A
 Frequencies --   2679.2667              2681.7188              2687.2537
 Red. masses --      1.0728                 1.0719                 1.0694
 Frc consts  --      4.5372                 4.5418                 4.5500
 IR Inten    --    104.3641                34.1809               180.8313

                    127                    128                    129
                      A                      A                      A
 Frequencies --   2688.2126              2717.5407              2722.4986
 Red. masses --      1.0732                 1.0452                 1.0454
 Frc consts  --      4.5694                 4.5476                 4.5653
 IR Inten    --    208.9900                49.9686                40.1212

 - Thermochemistry -
 -------------------
 Temperature   298.150 Kelvin.  Pressure   1.00000 Atm.
 Atom     1 has atomic number  8 and mass  15.99491

 Molecular mass:   342.11621 amu.
 Principal axes and moments of inertia in atomic units:
                           1         2         3
     Eigenvalues --  3486.75160********************
           X            1.00000  -0.00161   0.00181
           Y            0.00161   1.00000   0.00034
           Z           -0.00181  -0.00034   1.00000
 This molecule is an asymmetric top.
 Rotational symmetry number  1.
 Warning -- assumption of classical behavior for rotation
           may cause significant error
 Rotational temperatures (Kelvin)      0.02484     0.00699     0.00603
 Rotational constants (GHZ):           0.51760     0.14555     0.12555
 Zero-point vibrational energy     853158.0 (Joules/Mol)
                                  203.90965 (Kcal/Mol)
 Warning -- explicit consideration of  43 degrees of freedom as
           vibrations may cause significant error
 Vibrational temperatures:     21.47    41.22    56.59    64.97    83.43
          (Kelvin)             89.97   115.43   117.61   154.20   164.54
                              189.65   211.38   237.68   275.06   313.66
                              328.80   341.21   366.64   385.56   391.82
                              410.11   423.48   445.69   466.56   478.22
                              513.15   516.22   522.68   529.67   550.72
                              563.62   588.94   607.11   642.18   652.67
                              683.09   704.46   711.96   730.25   761.88
                              791.59   838.24   868.23   893.37   972.62
                              978.07  1050.14  1211.76  1268.05  1320.04
                             1390.40  1409.92  1438.08  1447.86  1470.07
                             1501.12  1524.95  1548.52  1552.70  1552.89
                             1564.58  1567.75  1585.93  1588.11  1590.00
                             1604.14  1610.24  1613.14  1618.10  1630.45
                             1639.67  1653.24  1661.28  1663.47  1667.30
                             1677.00  1682.28  1690.53  1699.40  1706.33
                             1712.84  1715.37  1724.51  1737.08  1738.70
                             1743.02  1758.62  1763.71  1770.32  1774.79
                             1779.98  1784.82  1796.74  1802.69  1806.01
                             1821.74  1831.36  1837.89  1859.94  1898.84
                             1915.80  1925.68  1930.98  1936.02  1942.80
                             1970.23  1994.47  3410.47  3591.96  3616.25
                             3621.41  3636.49  3644.04  3658.61  3663.58
                             3817.16  3819.52  3823.89  3826.00  3831.72
                             3835.16  3838.99  3843.00  3854.87  3858.40
                             3866.36  3867.74  3909.93  3917.07

 Zero-point correction=                           0.324951 (Hartree/Particle)
 Thermal correction to Energy=                    0.349975
 Thermal correction to Enthalpy=                  0.350919
 Thermal correction to Gibbs Free Energy=         0.269297
 Sum of electronic and zero-point Energies=             -0.465264
 Sum of electronic and thermal Energies=                -0.440239
 Sum of electronic and thermal Enthalpies=              -0.439295
 Sum of electronic and thermal Free Energies=           -0.520917

                     E (Thermal)             CV                S
                      KCal/Mol        Cal/Mol-Kelvin    Cal/Mol-Kelvin
 Total                  219.613             94.479            171.788
 Electronic               0.000              0.000              0.000
 Translational            0.889              2.981             43.384
 Rotational               0.889              2.981             34.785
 Vibrational            217.835             88.517             93.619
 Vibration     1          0.593              1.986              7.216
 Vibration     2          0.593              1.984              5.921
 Vibration     3          0.594              1.981              5.292
 Vibration     4          0.595              1.979              5.019
 Vibration     5          0.596              1.974              4.525
 Vibration     6          0.597              1.972              4.376
 Vibration     7          0.600              1.963              3.885
 Vibration     8          0.600              1.962              3.849
 Vibration     9          0.606              1.943              3.319
 Vibration    10          0.607              1.938              3.194
 Vibration    11          0.612              1.922              2.919
 Vibration    12          0.617              1.906              2.712
 Vibration    13          0.624              1.885              2.489
 Vibration    14          0.634              1.852              2.216
 Vibration    15          0.646              1.814              1.976
 Vibration    16          0.651              1.797              1.891
 Vibration    17          0.656              1.784              1.824
 Vibration    18          0.665              1.755              1.697
 Vibration    19          0.673              1.732              1.609
 Vibration    20          0.675              1.724              1.581
 Vibration    21          0.683              1.701              1.503
 Vibration    22          0.689              1.684              1.449
 Vibration    23          0.699              1.655              1.364
 Vibration    24          0.709              1.627              1.288
 Vibration    25          0.714              1.611              1.248
 Vibration    26          0.732              1.562              1.137
 Vibration    27          0.734              1.557              1.127
 Vibration    28          0.737              1.548              1.108
 Vibration    29          0.741              1.538              1.088
 Vibration    30          0.752              1.507              1.028
 Vibration    31          0.759              1.488              0.994
 Vibration    32          0.774              1.450              0.929
 Vibration    33          0.784              1.422              0.885
 Vibration    34          0.806              1.369              0.807
 Vibration    35          0.812              1.353              0.785
 Vibration    36          0.831              1.306              0.724
 Vibration    37          0.845              1.273              0.685
 Vibration    38          0.850              1.261              0.671
 Vibration    39          0.863              1.233              0.640
 Vibration    40          0.884              1.185              0.588
 Vibration    41          0.905              1.139              0.544
 Vibration    42          0.939              1.069              0.481
 Vibration    43          0.962              1.024              0.444

                           ! Non-Optimized Parameters !
 Normal termination of Gaussian 16 at Tue Jun 22 14:21:42 2021.
