 Gaussian 16, Revision B.01,
 Gaussian 16:  ES64L-G16RevB.01 20-Dec-2017

 -------------------------------------------------------------------
 #P PBE1PBE STO-3G opt freq int=(grid=99590) EmpiricalDispersion=GD3
 -------------------------------------------------------------------

 ----------
 initial-00
 ----------
 Symbolic Z-matrix:
 Charge =  0 Multiplicity = 1

 SCF Done:  E(RPBE1PBE) =  -1279.47255176     A.U. after   11 cycles
 SCF Done:  E(RPBE1PBE) =  -1279.49163518     A.U. after   12 cycles
 SCF Done:  E(RPBE1PBE) =  -1279.52316304     A.U. after   12 cycles
 SCF Done:  E(RPBE1PBE) =  -1279.51632714     A.U. after   13 cycles
 SCF Done:  E(RPBE1PBE) =  -1279.54267705     A.U. after   11 cycles
 SCF Done:  E(RPBE1PBE) =  -1279.55087945     A.U. after   12 cycles
 SCF Done:  E(RPBE1PBE) =  -1279.55228511     A.U. after   10 cycles
 SCF Done:  E(RPBE1PBE) =  -1279.55415167     A.U. after   11 cycles
 SCF Done:  E(RPBE1PBE) =  -1279.55547443     A.U. after   11 cycles
 SCF Done:  E(RPBE1PBE) =  -1279.55989289     A.U. after   10 cycles
 SCF Done:  E(RPBE1PBE) =  -1279.59377038     A.U. after    9 cycles
 SCF Done:  E(RPBE1PBE) =  -1279.59378247     A.U. after    8 cycles
 SCF Done:  E(RPBE1PBE) =  -1279.59377888     A.U. after    8 cycles
 SCF Done:  E(RPBE1PBE) =  -1279.59379075     A.U. after    9 cycles
 SCF Done:  E(RPBE1PBE) =  -1279.59379357     A.U. after    9 cycles
 SCF Done:  E(RPBE1PBE) =  -1279.59379520     A.U. after    7 cycles
 SCF Done:  E(RPBE1PBE) =  -1279.59379666     A.U. after    7 cycles
 SCF Done:  E(RPBE1PBE) =  -1279.59379737     A.U. after    6 cycles
 SCF Done:  E(RPBE1PBE) =  -1279.59379860     A.U. after    8 cycles
 Optimization completed.
    -- Stationary point found.

 The electronic state is 1-A.
 Alpha  occ. eigenvalues --  -19.00449 -18.99111 -18.98558 -18.98295 -18.97128
 Alpha  occ. eigenvalues --  -18.96796 -18.93525 -18.92229 -18.92021 -18.88089
 Alpha  occ. eigenvalues --  -18.88065 -10.15493 -10.15184 -10.13164 -10.13056
 Alpha  occ. eigenvalues --  -10.11900 -10.10629 -10.10383 -10.08944 -10.08721
 Alpha  occ. eigenvalues --  -10.08356 -10.07849 -10.07709  -1.05116  -1.03966
 Alpha  occ. eigenvalues --   -1.02882  -1.00344  -0.99568  -0.98067  -0.97000
 Alpha  occ. eigenvalues --   -0.96222  -0.95094  -0.93241  -0.91740  -0.77908
 Alpha  occ. eigenvalues --   -0.74295  -0.73451  -0.72243  -0.66136  -0.64047
 Alpha  occ. eigenvalues --   -0.61855  -0.58783  -0.58449  -0.57054  -0.56061
 Alpha  occ. eigenvalues --   -0.53259  -0.51349  -0.49065  -0.47968  -0.47583
 Alpha  occ. eigenvalues --   -0.46762  -0.45957  -0.45192  -0.44164  -0.43620
 Alpha  occ. eigenvalues --   -0.42246  -0.41816  -0.41170  -0.40253  -0.39274
 Alpha  occ. eigenvalues --   -0.39228  -0.38325  -0.37208  -0.36373  -0.35147
 Alpha  occ. eigenvalues --   -0.34517  -0.33450  -0.32868  -0.32143  -0.31546
 Alpha  occ. eigenvalues --   -0.30445  -0.28759  -0.27896  -0.27078  -0.26227
 Alpha  occ. eigenvalues --   -0.25241  -0.24670  -0.23603  -0.21780  -0.21644
 Alpha  occ. eigenvalues --   -0.20161  -0.19931  -0.19246  -0.18589  -0.18356
 Alpha  occ. eigenvalues --   -0.16429  -0.15492  -0.15153  -0.14501  -0.12123
 Alpha  occ. eigenvalues --   -0.11826
 Alpha virt. eigenvalues --    0.20778   0.23196   0.23537   0.26405   0.27637
 Alpha virt. eigenvalues --    0.29076   0.30698   0.31010   0.32323   0.32997
 Alpha virt. eigenvalues --    0.33885   0.34113   0.34913   0.35506   0.36286

 Mulliken charges:
               1
     1  O   -0.290687
     2  C    0.002304
     3  C   -0.004962
     4  O   -0.279443
     5  C   -0.018570
     6  C    0.102833
     7  O   -0.210637
     8  C    0.020269
     9  C   -0.066357
    10  O   -0.249296
    11  O   -0.192074
    12  C    0.002027
    13  C    0.010596
    14  C   -0.002123
    15  C    0.095722
    16  O   -0.198897
    17  C    0.011848
    18  C   -0.063840
    19  O   -0.295980
    20  O   -0.252479
    21  O   -0.253200
    22  O   -0.270389
    23  O   -0.299712
    24  H    0.074004
    25  H    0.070108
    26  H    0.198015
    27  H    0.074046
    28  H    0.087553
    29  H    0.078423
    30  H    0.086454
    31  H    0.076225
    32  H    0.177523
    33  H    0.100313
    34  H    0.082969
    35  H    0.090454
    36  H    0.065293
    37  H    0.069075
    38  H    0.079089
    39  H    0.066756
    40  H    0.193325
    41  H    0.211743
    42  H    0.224254
    43  H    0.222304
    44  H    0.194150
    45  H    0.180969
 Sum of Mulliken charges =  -0.00000

 Dipole moment (field-independent basis, Debye):
    X=              4.9688    Y=             -0.7658    Z=             -0.7305  Tot=              5.0803
 Quadrupole moment (field-independent basis, Debye-Ang):
   XX=           -117.4367   YY=           -127.4739   ZZ=           -123.0840
   XY=             -9.9787   XZ=              3.5727   YZ=             -3.9676

 Normal termination of Gaussian 16 at Fri Jun 18 19:19:46 2021.

 --------------------------------------------------------------------
 #P Geom=AllCheck Guess=TCheck SCRF=Check GenChk RPBE1PBE/STO-3G Freq
 --------------------------------------------------------------------

 Structure from the checkpoint file:  "/scratch-data/gaussian/Gau-28197.chk"
 ----------
 initial-00
 ----------
 Charge =  0 Multiplicity = 1

                         Standard orientation:
 ---------------------------------------------------------------------
 Center     Atomic      Atomic             Coordinates (Angstroms)
 Number     Number       Type             X           Y           Z
 ---------------------------------------------------------------------
      1          8           0       -2.998698   -0.724694    1.751468
      2          6           0       -3.430057   -0.468478    0.394461
      3          6           0       -2.854630   -1.654074   -0.436812
      4          8           0       -2.951625   -2.855233    0.377993
      5          6           0       -1.317508   -1.430625   -0.525860
      6          6           0       -1.042260   -0.138660   -1.375180
      7          8           0       -1.486421    0.982021   -0.518492
      8          6           0       -2.919600    0.899290   -0.210572
      9          6           0       -3.216154    2.064847    0.781360
     10          8           0       -4.660280    2.257405    0.779462
     11          8           0        0.328527    0.121008   -1.742776
     12          6           0        1.178680    0.200613   -0.546243
     13          6           0        2.074086   -1.059309   -0.384685
     14          6           0        3.172896   -0.781883    0.678765
     15          6           0        4.015851    0.468833    0.250707
     16          8           0        3.116860    1.634621    0.256334
     17          6           0        2.109550    1.451258   -0.786191
     18          6           0        1.212638    2.755725   -0.837263
     19          8           0        0.210982    2.849729    0.187637
     20          8           0        5.025267    0.679960    1.254468
     21          8           0        3.824490   -2.087282    0.762667
     22          8           0        1.402118   -2.247131    0.120328
     23          8           0       -0.806031   -2.728968   -0.891512
     24          1           0       -4.540974   -0.425769    0.302586
     25          1           0       -3.317474   -1.755941   -1.440957
     26          1           0       -2.033882   -3.254284    0.054180
     27          1           0       -0.996803   -1.159564    0.505247
     28          1           0       -1.603406   -0.157183   -2.341189
     29          1           0       -3.501401    1.071145   -1.145030
     30          1           0       -2.820682    1.774437    1.778509
     31          1           0       -2.664318    2.971382    0.445069
     32          1           0       -4.770215    2.946656    1.522785
     33          1           0        0.597175    0.368103    0.380858
     34          1           0        2.562486   -1.267742   -1.364039
     35          1           0        2.681409   -0.518812    1.639947
     36          1           0        4.443570    0.308173   -0.777631
     37          1           0        2.595452    1.312430   -1.779275
     38          1           0        1.900451    3.616827   -0.723551
     39          1           0        0.793060    2.793818   -1.867507
     40          1           0       -0.491733    2.154845   -0.116049
     41          1           0        4.307977   -2.051848    1.655594
     42          1           0        2.236796   -2.741643    0.470093
     43          1           0        0.172304   -2.685739   -0.513359
     44          1           0        5.431468    1.565946    0.957274
     45          1           0       -2.923726   -1.761940    1.640915
 ---------------------------------------------------------------------

 SCF Done:  E(RPBE1PBE) =  -1279.59379860     A.U. after    1 cycles
