 Gaussian 16, Revision B.01,
 Gaussian 16:  ES64L-G16RevB.01 20-Dec-2017

 --------------------------------------
 #P pm6 opt=loose freq int=(grid=99590)
 --------------------------------------

 ----------
 initial-00
 ----------
 Symbolic Z-matrix:
 Charge =  0 Multiplicity = 1

 SCF Done:  E(RPM6) = -0.498254947268     A.U. after   14 cycles
 SCF Done:  E(RPM6) = -0.694430075079     A.U. after   13 cycles
 SCF Done:  E(RPM6) = -0.729628031937     A.U. after   12 cycles
 SCF Done:  E(RPM6) = -0.744301397624     A.U. after   13 cycles
 SCF Done:  E(RPM6) = -0.743399634185     A.U. after   13 cycles
 SCF Done:  E(RPM6) = -0.754820481793     A.U. after   13 cycles
 SCF Done:  E(RPM6) = -0.759230952475     A.U. after   13 cycles
 SCF Done:  E(RPM6) = -0.764113564138     A.U. after   13 cycles
 SCF Done:  E(RPM6) = -0.766787812091     A.U. after   13 cycles
 SCF Done:  E(RPM6) = -0.768840177338     A.U. after   12 cycles
 SCF Done:  E(RPM6) = -0.784306779773     A.U. after    9 cycles
 SCF Done:  E(RPM6) = -0.784309788705     A.U. after    9 cycles
 SCF Done:  E(RPM6) = -0.784311157557     A.U. after    9 cycles
 SCF Done:  E(RPM6) = -0.784311856486     A.U. after    9 cycles
 SCF Done:  E(RPM6) = -0.784312928925     A.U. after    9 cycles
 SCF Done:  E(RPM6) = -0.784314228579     A.U. after   10 cycles
 SCF Done:  E(RPM6) = -0.784315248291     A.U. after    9 cycles
 SCF Done:  E(RPM6) = -0.784316024608     A.U. after    9 cycles
 SCF Done:  E(RPM6) = -0.784316443087     A.U. after    9 cycles
 Optimization completed.
    -- Stationary point found.
 Normal termination of Gaussian 16 at Tue Jun 22 14:17:32 2021.

 -------------------------------------------------------------
 #P Geom=AllCheck Guess=TCheck SCRF=Check GenChk RPM6/ZDO Freq
 -------------------------------------------------------------

 Structure from the checkpoint file:  "/scratch-data/gaussian/Gau-31526.chk"
 ----------
 initial-00
 ----------
 Charge =  0 Multiplicity = 1

                         Standard orientation:
 ---------------------------------------------------------------------
 Center     Atomic      Atomic             Coordinates (Angstroms)
 Number     Number       Type             X           Y           Z
 ---------------------------------------------------------------------
      1          8           0        3.548708   -0.797224    1.561450
      2          6           0        3.617701   -0.577368    0.150848
      3          6           0        3.653281    0.936852   -0.167075
      4          8           0        4.621999    1.440656    0.763068
      5          6           0        2.292658    1.621094    0.074815
      6          6           0        1.160657    0.864337   -0.654861
      7          8           0        1.164542   -0.526302   -0.259908
      8          6           0        2.385913   -1.263389   -0.476640
      9          6           0        2.063715   -2.613672    0.194547
     10          8           0        0.899423   -3.141472   -0.450563
     11          8           0       -1.035821   -1.362201   -1.461880
     12          6           0       -1.464288   -0.587457   -0.331669
     13          6           0       -1.288208    0.903753   -0.677571
     14          6           0       -2.297434    1.859076   -0.022077
     15          6           0       -3.669355    1.240038    0.372211
     16          8           0       -3.565556   -0.129126    0.799468
     17          6           0       -2.934176   -1.009907   -0.150793
     18          6           0       -3.032093   -2.401235    0.506115
     19          8           0       -1.944017   -3.234776    0.094801
     20          8           0       -4.161457    1.888273    1.524588
     21          8           0       -2.574245    2.822953   -1.052322
     22          8           0       -0.034039    1.364822   -0.078489
     23          8           0        2.452476    2.919222   -0.510692
     24          1           0        4.560447   -1.058975   -0.207934
     25          1           0        4.015356    1.144923   -1.200518
     26          1           0        4.636671    2.428055    0.725456
     27          1           0        2.064925    1.717576    1.162291
     28          1           0        1.165678    0.940711   -1.757520
     29          1           0        2.519129   -1.373363   -1.577220
     30          1           0        2.862642   -3.354627    0.007003
     31          1           0        1.904265   -2.490218    1.281987
     32          1           0        0.096994   -3.039244    0.138287
     33          1           0       -0.849089   -0.840692    0.567986
     34          1           0       -1.247721    1.061158   -1.782158
     35          1           0       -1.831168    2.365360    0.858444
     36          1           0       -4.442555    1.361921   -0.414871
     37          1           0       -3.483014   -0.964128   -1.117364
     38          1           0       -2.925757   -2.342607    1.607524
     39          1           0       -3.982315   -2.903977    0.252845
     40          1           0       -1.817859   -3.171571   -0.894394
     41          1           0       -2.961841    3.636803   -0.659510
     42          1           0       -0.069198   -1.644153   -1.333628
     43          1           0        1.633095    3.451659   -0.374635
     44          1           0       -3.871041    1.412373    2.343202
     45          1           0        4.116019   -0.128328    2.031445
 ---------------------------------------------------------------------

 SCF Done:  E(RPM6) = -0.784316443088     A.U. after    2 cycles

 The electronic state is 1-A.
 Alpha  occ. eigenvalues --   -1.16681  -1.15999  -1.14409  -1.13594  -1.12612
 Alpha  occ. eigenvalues --   -1.11726  -1.11028  -1.09904  -1.09208  -1.08769
 Alpha  occ. eigenvalues --   -1.07394  -1.02056  -1.00864  -0.98573  -0.98428
 Alpha  occ. eigenvalues --   -0.91915  -0.89910  -0.88097  -0.85296  -0.82941
 Alpha  occ. eigenvalues --   -0.81173  -0.78066  -0.75802  -0.73339  -0.71325
 Alpha  occ. eigenvalues --   -0.70445  -0.69221  -0.68650  -0.67688  -0.66986
 Alpha  occ. eigenvalues --   -0.65677  -0.65276  -0.64535  -0.62800  -0.61739
 Alpha  occ. eigenvalues --   -0.61597  -0.60349  -0.58220  -0.57004  -0.56254
 Alpha  occ. eigenvalues --   -0.56143  -0.55995  -0.55354  -0.54278  -0.53800
 Alpha  occ. eigenvalues --   -0.53242  -0.51879  -0.51697  -0.51159  -0.50906
 Alpha  occ. eigenvalues --   -0.50084  -0.48195  -0.47474  -0.47332  -0.46696
 Alpha  occ. eigenvalues --   -0.46077  -0.45599  -0.44069  -0.43280  -0.42604
 Alpha  occ. eigenvalues --   -0.42154  -0.41944  -0.40671  -0.40539  -0.39827
 Alpha  occ. eigenvalues --   -0.39359  -0.39132  -0.38106
 Alpha virt. eigenvalues --    0.02128   0.02587   0.03041   0.05033   0.05599
 Alpha virt. eigenvalues --    0.05703   0.06758   0.07286   0.07673   0.08105
 Alpha virt. eigenvalues --    0.08529   0.08691   0.08891   0.09249   0.09549

 Mulliken charges:
               1
     1  O   -0.545320
     2  C    0.072684
     3  C    0.071717
     4  O   -0.556041
     5  C    0.016505
     6  C    0.324374
     7  O   -0.522335
     8  C    0.081877
     9  C   -0.010837
    10  O   -0.558371
    11  O   -0.592255
    12  C    0.063260
    13  C    0.092181
    14  C    0.007607
    15  C    0.338701
    16  O   -0.510420
    17  C    0.068649
    18  C   -0.019055
    19  O   -0.561218
    20  O   -0.540649
    21  O   -0.542666
    22  O   -0.473517
    23  O   -0.553105
    24  H    0.142959
    25  H    0.148293
    26  H    0.337980
    27  H    0.172383
    28  H    0.125975
    29  H    0.133626
    30  H    0.149903
    31  H    0.159523
    32  H    0.340715
    33  H    0.173451
    34  H    0.169193
    35  H    0.164733
    36  H    0.152225
    37  H    0.143492
    38  H    0.164574
    39  H    0.135559
    40  H    0.337888
    41  H    0.321974
    42  H    0.360150
    43  H    0.331796
    44  H    0.339996
    45  H    0.341850
 Sum of Mulliken charges =   0.00000

 Dipole moment (field-independent basis, Debye):
    X=              1.4327    Y=              2.4080    Z=             -0.1721  Tot=              2.8073
 N-N= 1.386898255046D+03 E-N=-2.376522655931D+03  KE=-3.043794945920D+02
  Exact polarizability: 149.600  -8.015 141.698  -3.642   1.982 103.605
 Approx polarizability:  96.721  -8.920 101.260  -3.289   3.466  83.014
 Leave Link  601 at Tue Jun 22 14:17:33 2021, MaxMem=  2147483648 cpu:               0.2 elap:               0.0
 (Enter /home/matma/Programs/gaussian/G16_x86_SSE4/tar/g16/l701.exe)
 ... and contract with generalized density number  0.
 Compute integral second derivatives.
 Leave Link  701 at Tue Jun 22 14:17:33 2021, MaxMem=  2147483648 cpu:               0.6 elap:               0.1
 (Enter /home/matma/Programs/gaussian/G16_x86_SSE4/tar/g16/l702.exe)
 L702 exits ... SP integral derivatives will be done elsewhere.

                      1                      2                      3
                      A                      A                      A
 Frequencies --     21.5836                25.9047                38.1619
 Red. masses --      6.3932                 5.6023                 5.5365
 Frc consts  --      0.0018                 0.0022                 0.0048
 IR Inten    --      0.5849                 0.6824                 2.6926

                      4                      5                      6
                      A                      A                      A
 Frequencies --     47.5057                62.1140                70.8479
 Red. masses --      6.6324                 3.8743                 6.0664
 Frc consts  --      0.0088                 0.0088                 0.0179
 IR Inten    --      3.5388                 4.1688                 3.3954

                      7                      8                      9
                      A                      A                      A
 Frequencies --     83.9019               100.4672               118.6667
 Red. masses --      5.6918                 6.5212                 4.9137
 Frc consts  --      0.0236                 0.0388                 0.0408
 IR Inten    --      4.4098                 4.3249                 0.1328

                     10                     11                     12
                      A                      A                      A
 Frequencies --    126.0015               140.5769               151.2916
 Red. masses --      5.3051                 4.2413                 4.3868
 Frc consts  --      0.0496                 0.0494                 0.0592
 IR Inten    --     11.7583                 0.3934                 6.8522

                     13                     14                     15
                      A                      A                      A
 Frequencies --    167.9326               175.3243               198.0957
 Red. masses --      5.8334                 6.6034                 6.7228
 Frc consts  --      0.0969                 0.1196                 0.1554
 IR Inten    --      2.0736                 1.9292                 3.4614

                     16                     17                     18
                      A                      A                      A
 Frequencies --    221.5068               238.4511               255.1162
 Red. masses --      4.6102                 5.6820                 2.6860
 Frc consts  --      0.1333                 0.1903                 0.1030
 IR Inten    --     12.9828                19.7562                13.1495

                     19                     20                     21
                      A                      A                      A
 Frequencies --    258.8604               266.9656               271.1137
 Red. masses --      1.5107                 2.2672                 3.2153
 Frc consts  --      0.0596                 0.0952                 0.1392
 IR Inten    --     34.1515                63.2204                85.4218

                     22                     23                     24
                      A                      A                      A
 Frequencies --    284.1878               298.1354               306.6609
 Red. masses --      1.9464                 2.3651                 2.0008
 Frc consts  --      0.0926                 0.1239                 0.1109
 IR Inten    --     56.0806                24.9804                87.8333

                     25                     26                     27
                      A                      A                      A
 Frequencies --    309.6981               318.7820               328.4169
 Red. masses --      1.2965                 1.2899                 2.1574
 Frc consts  --      0.0733                 0.0772                 0.1371
 IR Inten    --     33.5137               151.9863                59.4667

                     28                     29                     30
                      A                      A                      A
 Frequencies --    342.4653               353.2834               359.1820
 Red. masses --      5.6160                 1.2629                 4.0633
 Frc consts  --      0.3881                 0.0929                 0.3089
 IR Inten    --      2.4875               154.1711                40.9232

                     31                     32                     33
                      A                      A                      A
 Frequencies --    374.7755               386.7682               404.0082
 Red. masses --      4.0505                 3.2827                 4.2108
 Frc consts  --      0.3352                 0.2893                 0.4049
 IR Inten    --     78.2550                26.5456                 3.1019

                     34                     35                     36
                      A                      A                      A
 Frequencies --    415.2354               434.0060               438.7811
 Red. masses --      1.5249                 4.4978                 2.4026
 Frc consts  --      0.1549                 0.4992                 0.2725
 IR Inten    --    171.3122                16.7987                70.3221

                     37                     38                     39
                      A                      A                      A
 Frequencies --    476.0017               479.5513               526.3056
 Red. masses --      3.9104                 4.9663                 4.2605
 Frc consts  --      0.5220                 0.6729                 0.6953
 IR Inten    --     30.9432                47.7467                 5.7595

                     40                     41                     42
                      A                      A                      A
 Frequencies --    550.2165               559.5169               567.2807
 Red. masses --      3.9051                 5.4337                 3.5626
 Frc consts  --      0.6966                 1.0022                 0.6755
 IR Inten    --      5.8301                11.4737                 7.4507

                     43                     44                     45
                      A                      A                      A
 Frequencies --    590.9983               612.8616               620.9383
 Red. masses --      3.4463                 1.1995                 4.4639
 Frc consts  --      0.7092                 0.2654                 1.0141
 IR Inten    --     19.0096                27.0611                 4.5837

                     46                     47                     48
                      A                      A                      A
 Frequencies --    635.0816               722.5460               872.9506
 Red. masses --      4.2010                 5.3947                 2.1442
 Frc consts  --      0.9983                 1.6594                 0.9627
 IR Inten    --     18.4822                 4.0727                32.2221

                     49                     50                     51
                      A                      A                      A
 Frequencies --    883.5214               926.7257               973.5688
 Red. masses --      1.7975                 2.5603                 3.1609
 Frc consts  --      0.8267                 1.2955                 1.7652
 IR Inten    --     12.1002                21.0527                19.9552

                     52                     53                     54
                      A                      A                      A
 Frequencies --    990.3849              1011.8243              1023.8404
 Red. masses --      2.1338                 2.5941                 2.8339
 Frc consts  --      1.2331                 1.5647                 1.7502
 IR Inten    --     19.7964                 8.4566               108.9259

                     55                     56                     57
                      A                      A                      A
 Frequencies --   1029.8802              1036.5807              1054.4361
 Red. masses --      2.7033                 2.8617                 2.1594
 Frc consts  --      1.6894                 1.8117                 1.4146
 IR Inten    --     16.3670               102.4445                16.0431

                     58                     59                     60
                      A                      A                      A
 Frequencies --   1070.3115              1079.3323              1081.3687
 Red. masses --      2.1079                 2.4726                 2.8077
 Frc consts  --      1.4227                 1.6972                 1.9344
 IR Inten    --    148.5028               136.4234               117.2221

                     61                     62                     63
                      A                      A                      A
 Frequencies --   1092.4644              1098.2216              1102.2661
 Red. masses --      3.2687                 2.9616                 3.1660
 Frc consts  --      2.2985                 2.1045                 2.2664
 IR Inten    --     53.5660                78.2102                56.3488

                     64                     65                     66
                      A                      A                      A
 Frequencies --   1106.6180              1111.3812              1116.9314
 Red. masses --      1.9206                 2.3695                 2.7741
 Frc consts  --      1.3857                 1.7244                 2.0390
 IR Inten    --     21.9989                25.0762                26.6558

                     67                     68                     69
                      A                      A                      A
 Frequencies --   1120.8681              1125.5559              1129.0764
 Red. masses --      2.3892                 1.9066                 1.8862
 Frc consts  --      1.7685                 1.4232                 1.4168
 IR Inten    --     79.6651                16.3390               137.9733

                     70                     71                     72
                      A                      A                      A
 Frequencies --   1142.1450              1144.1801              1149.4426
 Red. masses --      2.1285                 2.6784                 2.0742
 Frc consts  --      1.6360                 2.0659                 1.6146
 IR Inten    --     28.4568                62.9732                47.8801

                     73                     74                     75
                      A                      A                      A
 Frequencies --   1157.9784              1165.0366              1165.4309
 Red. masses --      1.5453                 1.3993                 1.3268
 Frc consts  --      1.2209                 1.1190                 1.0617
 IR Inten    --     22.7976                 3.2212                 4.7052

                     76                     77                     78
                      A                      A                      A
 Frequencies --   1170.8249              1174.6234              1177.9943
 Red. masses --      1.7645                 1.5299                 1.2988
 Frc consts  --      1.4252                 1.2437                 1.0619
 IR Inten    --    104.4361                 4.7503                58.4684

                     79                     80                     81
                      A                      A                      A
 Frequencies --   1180.7880              1182.1977              1188.9304
 Red. masses --      1.3795                 1.2894                 1.5667
 Frc consts  --      1.1332                 1.0617                 1.3048
 IR Inten    --     28.1945                 6.5214                45.5065

                     82                     83                     84
                      A                      A                      A
 Frequencies --   1191.7996              1194.6720              1202.8640
 Red. masses --      1.4472                 1.6250                 1.3591
 Frc consts  --      1.2111                 1.3665                 1.1586
 IR Inten    --     42.6053                 5.7402                 7.8754

                     85                     86                     87
                      A                      A                      A
 Frequencies --   1210.1280              1216.6011              1219.8802
 Red. masses --      1.4780                 1.4538                 1.4051
 Frc consts  --      1.2752                 1.2678                 1.2319
 IR Inten    --      3.5028                14.4326                30.8292

                     88                     89                     90
                      A                      A                      A
 Frequencies --   1228.3343              1232.4964              1235.1370
 Red. masses --      1.6589                 1.7585                 1.3203
 Frc consts  --      1.4747                 1.5738                 1.1867
 IR Inten    --     55.4236                17.8423                 6.3481

                     91                     92                     93
                      A                      A                      A
 Frequencies --   1239.9452              1247.7427              1252.0110
 Red. masses --      1.4874                 1.3918                 1.5610
 Frc consts  --      1.3473                 1.2767                 1.4417
 IR Inten    --      3.1819                 1.3282                 7.8692

                     94                     95                     96
                      A                      A                      A
 Frequencies --   1259.6029              1260.9519              1263.4396
 Red. masses --      1.3578                 1.4434                 1.4777
 Frc consts  --      1.2693                 1.3522                 1.3898
 IR Inten    --      3.1410                11.0929                47.9913

                     97                     98                     99
                      A                      A                      A
 Frequencies --   1272.1674              1279.2665              1287.6567
 Red. masses --      1.4148                 1.5962                 1.3915
 Frc consts  --      1.3491                 1.5390                 1.3594
 IR Inten    --     13.7911                28.8236                 9.1121

                    100                    101                    102
                      A                      A                      A
 Frequencies --   1331.8739              1332.8736              1336.4131
 Red. masses --      1.4675                 1.6124                 1.5346
 Frc consts  --      1.5338                 1.6878                 1.6148
 IR Inten    --     13.9848                 2.7032                14.8940

                    103                    104                    105
                      A                      A                      A
 Frequencies --   1342.7885              1344.7798              1346.0546
 Red. masses --      1.5623                 1.6529                 1.8171
 Frc consts  --      1.6597                 1.7612                 1.9398
 IR Inten    --     29.1315                21.6535                26.5954

                    106                    107                    108
                      A                      A                      A
 Frequencies --   1368.8422              1381.2038              2394.8021
 Red. masses --      1.1871                 1.5571                 1.0590
 Frc consts  --      1.3106                 1.7502                 3.5784
 IR Inten    --      9.9749                37.9148               229.1983

                    109                    110                    111
                      A                      A                      A
 Frequencies --   2465.9752              2505.4892              2518.1082
 Red. masses --      1.0572                 1.0541                 1.0552
 Frc consts  --      3.7879                 3.8987                 3.9422
 IR Inten    --    604.6539               337.7312               243.6336

                    112                    113                    114
                      A                      A                      A
 Frequencies --   2536.0908              2541.3052              2542.6448
 Red. masses --      1.0549                 1.0541                 1.0534
 Frc consts  --      3.9977                 4.0108                 4.0123
 IR Inten    --    199.2391               128.0431               474.8829

                    115                    116                    117
                      A                      A                      A
 Frequencies --   2546.9821              2649.0420              2655.3458
 Red. masses --      1.0541                 1.0594                 1.0638
 Frc consts  --      4.0289                 4.3800                 4.4195
 IR Inten    --    298.0307                38.7614                15.6827

                    118                    119                    120
                      A                      A                      A
 Frequencies --   2656.4198              2656.9982              2657.7751
 Red. masses --      1.0709                 1.0691                 1.0785
 Frc consts  --      4.4524                 4.4469                 4.4887
 IR Inten    --     33.4409                38.8158                50.3228

                    121                    122                    123
                      A                      A                      A
 Frequencies --   2661.1406              2664.5037              2667.0316
 Red. masses --      1.0652                 1.0677                 1.0634
 Frc consts  --      4.4445                 4.4661                 4.4565
 IR Inten    --     20.6791                14.3781                22.0466

                    124                    125                    126
                      A                      A                      A
 Frequencies --   2671.4875              2674.1703              2680.2794
 Red. masses --      1.0725                 1.0718                 1.0723
 Frc consts  --      4.5100                 4.5161                 4.5387
 IR Inten    --     85.1287                42.8625               125.4788

                    127                    128                    129
                      A                      A                      A
 Frequencies --   2682.0716              2717.7431              2723.8724
 Red. masses --      1.0726                 1.0448                 1.0460
 Frc consts  --      4.5462                 4.5469                 4.5725
 IR Inten    --    176.3609                40.5292                49.9540

 - Thermochemistry -
 -------------------
 Temperature   298.150 Kelvin.  Pressure   1.00000 Atm.
 Atom     1 has atomic number  8 and mass  15.99491

 Molecular mass:   342.11621 amu.
 Principal axes and moments of inertia in atomic units:
                           1         2         3
     Eigenvalues --  4926.974909782.57313**********
           X            1.00000   0.00225  -0.00043
           Y           -0.00225   1.00000  -0.00046
           Z            0.00043   0.00047   1.00000
 This molecule is an asymmetric top.
 Rotational symmetry number  1.
 Warning -- assumption of classical behavior for rotation
           may cause significant error
 Rotational temperatures (Kelvin)      0.01758     0.00885     0.00655
 Rotational constants (GHZ):           0.36630     0.18449     0.13656
 Zero-point vibrational energy     851278.0 (Joules/Mol)
                                  203.46031 (Kcal/Mol)
 Warning -- explicit consideration of  44 degrees of freedom as
           vibrations may cause significant error
 Vibrational temperatures:     31.05    37.27    54.91    68.35    89.37
          (Kelvin)            101.93   120.72   144.55   170.73   181.29
                              202.26   217.67   241.62   252.25   285.02
                              318.70   343.08   367.06   372.44   384.10
                              390.07   408.88   428.95   441.22   445.59
                              458.66   472.52   492.73   508.30   516.78
                              539.22   556.47   581.28   597.43   624.44
                              631.31   684.86   689.97   757.24   791.64
                              805.02   816.19   850.31   881.77   893.39
                              913.74  1039.58  1255.98  1271.19  1333.35
                             1400.75  1424.94  1455.79  1473.08  1481.77
                             1491.41  1517.10  1539.94  1552.92  1555.85
                             1571.81  1580.10  1585.92  1592.18  1599.03
                             1607.02  1612.68  1619.42  1624.49  1643.29
                             1646.22  1653.79  1666.07  1676.23  1676.80
                             1684.56  1690.02  1694.87  1698.89  1700.92
                             1710.61  1714.73  1718.87  1730.65  1741.10
                             1750.42  1755.14  1767.30  1773.29  1777.09
                             1784.00  1795.22  1801.36  1812.29  1814.23
                             1817.81  1830.37  1840.58  1852.65  1916.27
                             1917.71  1922.80  1931.97  1934.84  1936.67
                             1969.46  1987.24  3445.59  3547.99  3604.84
                             3623.00  3648.87  3656.37  3658.30  3664.54
                             3811.38  3820.45  3822.00  3822.83  3823.95
                             3828.79  3833.63  3837.26  3843.67  3847.53
                             3856.32  3858.90  3910.23  3919.04

 Zero-point correction=                           0.324235 (Hartree/Particle)
 Thermal correction to Energy=                    0.349594
 Thermal correction to Enthalpy=                  0.350538
 Thermal correction to Gibbs Free Energy=         0.268893
 Sum of electronic and zero-point Energies=             -0.460082
 Sum of electronic and thermal Energies=                -0.434723
 Sum of electronic and thermal Enthalpies=              -0.433778
 Sum of electronic and thermal Free Energies=           -0.515424

                     E (Thermal)             CV                S
                      KCal/Mol        Cal/Mol-Kelvin    Cal/Mol-Kelvin
 Total                  219.373             95.292            171.837
 Electronic               0.000              0.000              0.000
 Translational            0.889              2.981             43.384
 Rotational               0.889              2.981             34.809
 Vibrational            217.596             89.331             93.644
 Vibration     1          0.593              1.985              6.483
 Vibration     2          0.593              1.985              6.121
 Vibration     3          0.594              1.982              5.352
 Vibration     4          0.595              1.979              4.919
 Vibration     5          0.597              1.972              4.389
 Vibration     6          0.598              1.968              4.130
 Vibration     7          0.601              1.960              3.797
 Vibration     8          0.604              1.949              3.445
 Vibration     9          0.609              1.934              3.122
 Vibration    10          0.611              1.927              3.006
 Vibration    11          0.615              1.913              2.796
 Vibration    12          0.619              1.901              2.656
 Vibration    13          0.625              1.882              2.458
 Vibration    14          0.627              1.873              2.378
 Vibration    15          0.637              1.843              2.151
 Vibration    16          0.648              1.808              1.947
 Vibration    17          0.656              1.782              1.814
 Vibration    18          0.665              1.754              1.695
 Vibration    19          0.668              1.748              1.669
 Vibration    20          0.672              1.734              1.616
 Vibration    21          0.675              1.726              1.589
 Vibration    22          0.683              1.703              1.508
 Vibration    23          0.691              1.677              1.427
 Vibration    24          0.697              1.661              1.380
 Vibration    25          0.699              1.655              1.364
 Vibration    26          0.705              1.638              1.316
 Vibration    27          0.712              1.619              1.268
 Vibration    28          0.722              1.591              1.201
 Vibration    29          0.729              1.569              1.152
 Vibration    30          0.734              1.556              1.126
 Vibration    31          0.746              1.524              1.060
 Vibration    32          0.755              1.498              1.013
 Vibration    33          0.769              1.461              0.948
 Vibration    34          0.779              1.437              0.908
 Vibration    35          0.795              1.396              0.846
 Vibration    36          0.799              1.386              0.830
 Vibration    37          0.833              1.303              0.721
 Vibration    38          0.836              1.295              0.711
 Vibration    39          0.881              1.192              0.596
 Vibration    40          0.906              1.139              0.544
 Vibration    41          0.915              1.119              0.525
 Vibration    42          0.923              1.102              0.509
 Vibration    43          0.948              1.051              0.465
 Vibration    44          0.972              1.005              0.428

 Optimization completed.
    -- Stationary point found.
 Normal termination of Gaussian 16 at Tue Jun 22 14:17:33 2021.
